/*--------------------------------*- C++ -*----------------------------------*\
| =========                 |                                                 |
| \\      /  F ield         | OpenFOAM: The Open Source CFD Toolbox           |
|  \\    /   O peration     | Version:  v1806                                 |
|   \\  /    A nd           | Web:      www.OpenFOAM.com                      |
|    \\/     M anipulation  |                                                 |
\*---------------------------------------------------------------------------*/
FoamFile
{
    version     2.0;
    format      ascii;
    class       volScalarField;
    location    "0.1";
    object      p;
}
// * * * * * * * * * * * * * * * * * * * * * * * * * * * * * * * * * * * * * //

dimensions      [0 2 -2 0 0 0 0];


internalField   nonuniform List<scalar> 
12474
(
-0.2155550522
-0.1327861568
-0.1188315993
-0.0972252244
-0.0896433041
-0.08320074505
-0.08131701184
-0.07926564651
-0.07811929202
-0.08022555827
-0.08135505292
-0.08689488104
-0.0927864645
-0.101991182
-0.1107758933
-0.1215197782
-0.1309345608
-0.1408978353
-0.1487514661
-0.1559627474
-0.1606541465
-0.1639389131
-0.1648472831
-0.1643604677
-0.1615882022
-0.1576498132
-0.1526077463
-0.1467982656
-0.1404037081
-0.13378637
-0.1270880009
-0.1205184144
-0.1141802244
-0.1081666066
-0.1025331411
-0.09730316859
-0.09249063728
-0.08807520269
-0.08405069066
-0.08037263422
-0.07703084849
-0.07396562169
-0.0711744643
-0.06858517269
-0.06621070555
-0.06396576381
-0.06188390059
-0.05986430194
-0.05796480141
-0.05606620444
-0.05425299997
-0.0523863814
-0.05057736625
-0.04867069024
-0.04679933013
-0.04480097589
-0.04282096573
-0.04070479624
-0.03859756648
-0.03636859863
-0.03415046105
-0.03184768916
-0.02957105106
-0.02726269971
-0.02500633014
-0.02277510969
-0.0206248001
-0.01854802377
-0.01657668681
-0.01471124911
-0.01296643477
-0.01134284034
-0.009844229004
-0.008468293807
-0.007212382077
-0.006071276071
-0.005038958948
-0.004108444
-0.003272342239
-0.002523115382
-0.00185320635
-0.001255417029
-0.0007226901154
-0.0002486806623
0.0001728884685
0.0005472873168
0.000879940108
0.001175033823
0.001437141795
0.001669546606
0.001875925969
0.002058982299
0.002221426057
0.002365568916
0.002493551844
0.002606351954
0.002707789809
0.002795584738
0.00287323188
0.00294791012
0.00301444841
0.003070415702
0.003122203416
0.003162779397
0.003199357998
0.003233774137
0.003264666268
0.003290452919
0.003313180115
0.003333140551
0.003350419008
0.003366292845
0.003379228943
0.003390301908
0.003398535931
0.0034058402
0.003411513433
0.003416134138
0.003419114786
0.003419714471
0.003419067968
0.003417919959
0.003416214338
0.003414764442
0.00341194369
0.003409004104
0.00340582958
0.003402214691
0.003399003048
0.003395367538
0.003392523984
0.003387571335
0.0033808461
0.003371367303
0.003359818477
0.003352061732
0.003342782827
0.003333949616
0.003325024061
0.003316135476
0.003306662543
0.0032946401
0.003286815259
0.003282797068
0.003272186088
0.003263799572
0.003256961182
0.003246472938
0.003236383272
0.003226749483
0.00321523691
0.003197785824
0.003197001994
0.003190825957
0.003178259059
0.003172921759
0.003169972996
0.00315603753
0.003139698689
0.003127826024
0.003118082383
0.003108622904
0.003092769005
0.003086650441
0.00307475567
0.003053136286
0.003048691963
0.003040381619
0.003025887332
0.003009439561
0.002994335649
0.00297947836
0.002964960932
0.002950618995
0.002936359683
0.002922150765
0.002907995573
0.002893885591
0.002879821634
0.00286579174
0.002851784105
0.002837788705
0.002823796574
0.002809801864
0.002795799388
0.002781786351
0.002767760769
0.002753722268
0.002739671107
0.002725608499
0.002711536057
0.00269745609
0.00268337094
0.002669283728
0.002655197104
0.002641114869
0.002627039663
0.002612975828
0.002598925739
0.002584893894
0.002570882533
0.002556895399
0.00254293524
0.002529003761
0.002515104379
0.002501237057
0.002487404399
0.002473602619
0.002459844195
0.002446092324
0.002432421826
0.002418679516
0.002405132029
0.002391283307
0.002377995197
0.00236373981
0.002351076925
0.002335713914
0.002324581815
0.002306609977
0.002298904472
0.002275462343
0.002274604583
0.002241030673
0.002252090884
0.00220228975
0.002230693714
0.002159571999
0.002206942832
0.002116330598
0.002172125882
0.002080417056
0.002109517592
0.002059928393
0.002012904387
0.002016605798
0.00192369644
0.001980220576
0.001799060648
0.00192885022
0.001643918792
0.001811529608
0.00149613805
0.001608921206
0.001335430844
0.001305123462
0.001070233586
0.0003064120719
0.0009924848228
-0.003604149393
-0.1290708332
-0.1012463921
-0.09837566183
-0.08492241686
-0.0817793845
-0.07768144843
-0.07658681793
-0.07654921813
-0.07623395602
-0.07884738639
-0.08101645359
-0.08693278164
-0.09305196026
-0.1024346642
-0.1114457204
-0.1224326082
-0.1321321102
-0.1423515219
-0.1504060476
-0.1577938367
-0.1624587825
-0.1657525037
-0.1663064309
-0.1655416405
-0.1625093595
-0.1583124423
-0.1528469374
-0.1467147597
-0.140022334
-0.1331640907
-0.1262737399
-0.1195616904
-0.1131279101
-0.1070634485
-0.1014107414
-0.09618439611
-0.09139184088
-0.08700674976
-0.08301984009
-0.07938228553
-0.07608271809
-0.07305862165
-0.07030762689
-0.06775581851
-0.0654168694
-0.06320455151
-0.0611530201
-0.05916117138
-0.05728693992
-0.05541119264
-0.05361833308
-0.0517690298
-0.04997526504
-0.0480789952
-0.04621699245
-0.04422066769
-0.04224262877
-0.04011891534
-0.03800501859
-0.03575907221
-0.03352610348
-0.03119959181
-0.02890314414
-0.02656962981
-0.02429383983
-0.0220420783
-0.01987753514
-0.0177885097
-0.01581054652
-0.01394167651
-0.01219774364
-0.01057797257
-0.0090860681
-0.007718869786
-0.006473316444
-0.005343610753
-0.004323337675
-0.003405115304
-0.002581268169
-0.001843993796
-0.001185583864
-0.0005986571493
-7.612853006e-05
0.0003884911479
0.0008013888357
0.001167977148
0.001493491867
0.001782280242
0.002038672772
0.002266094574
0.002468035865
0.002647191074
0.002806343522
0.002947496723
0.003073105994
0.003184307388
0.003283731361
0.003372550675
0.00345155526
0.003523220834
0.003587206518
0.003635805109
0.003676698969
0.003722898359
0.003763959893
0.003793039883
0.003819678337
0.003842105735
0.003862180137
0.003881131326
0.003895929483
0.003911382691
0.00392268596
0.003930487536
0.003937258575
0.003942615356
0.003944647244
0.003946011541
0.003946832627
0.003946952786
0.00394847699
0.003951751359
0.003952245536
0.003952563728
0.003952376082
0.003949186476
0.003945674297
0.003940599508
0.003938406381
0.0039337209
0.003926620504
0.003917562811
0.003908232554
0.003907107904
0.003900043452
0.00388680021
0.003879024676
0.003872503855
0.003861739063
0.003850044461
0.00384546362
0.003837195307
0.003821119355
0.003812253736
0.003810821202
0.003798147281
0.003791789614
0.00378976792
0.003781794122
0.003775232163
0.003764719851
0.003753551454
0.003748103674
0.003744931095
0.003734806135
0.00372352156
0.003710418869
0.003701006594
0.003692728935
0.003680627024
0.003667685451
0.00364822304
0.00363628782
0.003629688838
0.003612381837
0.003604153451
0.003596485925
0.003583672746
0.003571348866
0.003558088321
0.003545249834
0.003532292054
0.003519360758
0.003506517393
0.003493651824
0.003480714975
0.003467667058
0.003454477208
0.003441145309
0.003427679513
0.003414097008
0.00340041863
0.003386664461
0.003372853581
0.003359001339
0.003345120827
0.003331221966
0.003317312882
0.003303399792
0.003289487907
0.0032755816
0.003261684912
0.003247801715
0.003233935924
0.003220091658
0.003206273113
0.003192485028
0.003178731789
0.003165018958
0.003151350705
0.003137733468
0.003124170722
0.003110669871
0.003097232854
0.00308386856
0.003070575845
0.003057367088
0.003044232744
0.003031199275
0.003018225867
0.003005395339
0.002992558192
0.002979988541
0.002967190547
0.002955035538
0.002942002109
0.002930654965
0.002916712386
0.002907100383
0.002890778784
0.002884829974
0.00286330613
0.002864486307
0.002833122983
0.002846580902
0.002799261936
0.002830591519
0.002762119222
0.002813256543
0.002725437304
0.002786157898
0.002699421418
0.002729897543
0.002684915974
0.002647666634
0.002647760406
0.00257493179
0.002619087781
0.002469073148
0.002555613063
0.002350621823
0.002411890736
0.002235540834
0.002173445668
0.002079049182
0.001839873789
0.001743242347
0.0008086102077
0.00143005099
-0.002876276622
-0.1146780211
-0.09877814367
-0.09416704925
-0.08270469757
-0.07895523719
-0.07396141912
-0.07396829465
-0.07436854434
-0.07485072948
-0.0777630846
-0.08041372177
-0.08684453381
-0.09343689823
-0.1034638535
-0.1130442177
-0.1248183487
-0.1351474094
-0.1461836423
-0.1547143088
-0.1626419323
-0.1674279379
-0.1708581813
-0.1712319067
-0.1701864628
-0.1666921038
-0.1620562839
-0.1560180995
-0.1493700344
-0.1421626014
-0.1348637731
-0.1275896609
-0.1205755379
-0.1139069879
-0.1076727982
-0.1019094685
-0.0966230493
-0.09181200944
-0.08743789131
-0.08348516238
-0.07989632641
-0.07665635464
-0.07369659926
-0.0710134524
-0.06852856483
-0.06625627926
-0.06410689412
-0.06211679186
-0.06018125258
-0.05836245135
-0.05653540839
-0.05479247971
-0.05298309737
-0.05123371305
-0.04936679123
-0.04754158707
-0.04556107533
-0.0436079255
-0.04148307638
-0.03937669347
-0.03711027123
-0.03486391956
-0.03249865091
-0.03017014494
-0.02778617284
-0.02546784751
-0.02316459975
-0.02095765108
-0.01882581079
-0.01681428019
-0.01491645796
-0.01315191259
-0.01151751603
-0.01001757147
-0.008647390075
-0.007403291528
-0.006278317948
-0.005265203151
-0.004355724719
-0.003541517463
-0.0028142719
-0.002165823594
-0.001588584668
-0.001075178759
-0.0006191480573
-0.0002140812986
0.0001452369394
0.0004642591377
0.0007470513355
0.0009981382002
0.001220696207
0.001418275761
0.001593554388
0.001748986305
0.001887114601
0.002009366021
0.00211804154
0.002214343258
0.002299501159
0.002374113625
0.002441580599
0.002501202327
0.002560470305
0.002614291537
0.002653104503
0.002686708285
0.002727916075
0.002763521009
0.002788594695
0.002811146852
0.002827120135
0.002845774042
0.002865047473
0.002882613465
0.002896711865
0.002903763377
0.002910093031
0.002916572281
0.002921855587
0.002925217594
0.002928229413
0.002925761401
0.002917233976
0.002910800017
0.002906322416
0.002904274753
0.002904430411
0.002901026218
0.00289772998
0.002893567726
0.002888980894
0.002886393116
0.002886304969
0.002882220523
0.00286356737
0.002860168107
0.002861915897
0.002843716167
0.00282936915
0.002829826957
0.002826518329
0.002819625101
0.002812835195
0.002803622344
0.002776696894
0.00275312215
0.002747770884
0.00273703035
0.002728923497
0.002718303212
0.002706398959
0.002697645714
0.002700491029
0.002690746697
0.002679628968
0.002677727623
0.00266256603
0.002642039035
0.002626827037
0.002617003712
0.002600920487
0.002594450694
0.002593162206
0.002582056098
0.002571756878
0.002564953046
0.002549278989
0.002534504714
0.002523141941
0.002507093439
0.002490750384
0.002474936233
0.002459269712
0.002443650307
0.00242813549
0.002412732515
0.002397464791
0.00238238569
0.002367498594
0.002352804245
0.002338280773
0.002323897388
0.002309621476
0.002295420248
0.002281266495
0.002267137042
0.002253014938
0.002238887472
0.002224746534
0.002210586957
0.002196406306
0.002182203695
0.002167979906
0.002153735991
0.002139474435
0.002125196799
0.002110906562
0.002096604814
0.002082295838
0.00206797957
0.002053661043
0.002039338535
0.002025017605
0.002010694659
0.001996375219
0.001982053998
0.001967735103
0.001953413803
0.00193908611
0.001924760634
0.001910400172
0.001896068824
0.001881622569
0.001867307744
0.001852647285
0.001838459054
0.001823279557
0.001809552695
0.001793156373
0.001780736117
0.001761646759
0.001752342962
0.001727754574
0.001724875671
0.00169017928
0.001698716158
0.00164776334
0.001673276178
0.00160059279
0.001645365618
0.001551901054
0.001606785515
0.001510789751
0.001538143716
0.001479324352
0.001437856567
0.001422770103
0.001347144975
0.001372942245
0.001219680073
0.001292163976
0.001081401861
0.001150612697
0.0009558389573
0.0009333408619
0.0008322505287
0.0006149033369
0.0006746173302
-0.0002736015545
0.0008185975961
-0.003429379971
-0.08172944729
-0.07231706523
-0.07068677728
-0.06452337448
-0.06363098352
-0.06215225808
-0.06277975768
-0.06576919847
-0.06784071746
-0.07253838958
-0.07687265156
-0.08456381168
-0.0923288829
-0.1034260922
-0.1141993123
-0.1270726273
-0.1385871154
-0.150594315
-0.1599287351
-0.1683663966
-0.1731752312
-0.1764018975
-0.1760359007
-0.1741655198
-0.1695831005
-0.1639700236
-0.1568757776
-0.1493442593
-0.1413369308
-0.1334026833
-0.125630764
-0.1182608621
-0.1113568438
-0.1049886339
-0.09916593319
-0.09387362867
-0.08909662006
-0.08478331705
-0.08091070061
-0.07741013
-0.07426420683
-0.07139688691
-0.06880551856
-0.06640715397
-0.0642182992
-0.06214697065
-0.06023065421
-0.05836495382
-0.05661040277
-0.05484487173
-0.05315666339
-0.05139825414
-0.04969303424
-0.04786093301
-0.04606689905
-0.04409926511
-0.04215811364
-0.04001866657
-0.03789894135
-0.03558822422
-0.03330260283
-0.03086939567
-0.02848428032
-0.0260248358
-0.02364940931
-0.0212827704
-0.01903243913
-0.01686070091
-0.01482620219
-0.01291307614
-0.01114547746
-0.009515439841
-0.008027704994
-0.006674938861
-0.005452614808
-0.004352204788
-0.003365509776
-0.002483322156
-0.001696599364
-0.0009963849645
-0.0003741397199
0.0001781770564
0.0006680330809
0.001102245896
0.001487061344
0.001828025079
0.002130231002
0.002398041944
0.002635582386
0.002846156218
0.003033182343
0.003198951845
0.003346572806
0.00347718965
0.003594112971
0.00369720059
0.003790105483
0.003871925567
0.0039456136
0.004010241008
0.004069313874
0.004116077112
0.004153706318
0.004191581043
0.004224478266
0.00425239149
0.004275554616
0.004299385788
0.004309884595
0.004319388083
0.004335973354
0.004344294092
0.004352191344
0.004362685629
0.004366789494
0.004372739453
0.004377039487
0.004379201543
0.004379403513
0.004379799709
0.00438245938
0.004386162426
0.00439032656
0.004392376368
0.004393584869
0.004395042615
0.004399147542
0.004394146696
0.004375333128
0.004350583537
0.004337755554
0.004330898767
0.004319712035
0.004327415114
0.004331368854
0.004321589159
0.004334840939
0.004322521275
0.004278285666
0.004262837433
0.004261653573
0.004251908178
0.00423169643
0.004226264695
0.004242872953
0.004261375226
0.004262048991
0.004243110404
0.004232272109
0.004222225909
0.004211872445
0.00418955696
0.004175549416
0.004168589304
0.004141677782
0.00412971723
0.004146430251
0.004154909432
0.004135831479
0.004129364436
0.00410824553
0.004079905444
0.004076321829
0.00406712649
0.004047081104
0.004034301803
0.004025289309
0.004016351689
0.004006767318
0.00399660256
0.003985593297
0.003974183187
0.003962489968
0.003950690368
0.003938697217
0.003926509781
0.003914083182
0.003901390637
0.003888436851
0.003875241335
0.003861837278
0.003848263249
0.003834556849
0.003820752436
0.003806878114
0.003792956673
0.003779005162
0.003765036355
0.003751059524
0.003737081395
0.003723107081
0.003709140514
0.003695185415
0.003681244781
0.003667322457
0.003653421223
0.003639545877
0.003625698818
0.003611886338
0.003598109854
0.003584377405
0.003570688754
0.003557053687
0.003543469776
0.003529948422
0.003516484119
0.003503091148
0.003489756314
0.003476505993
0.003463299067
0.003450211573
0.003437104022
0.00342422577
0.003411121548
0.00339858265
0.003385220708
0.003373369156
0.003359116882
0.003348790297
0.003332267263
0.003325240504
0.003303773454
0.003303302714
0.003272414983
0.003283496308
0.003237032305
0.003265514262
0.003197517747
0.00324672736
0.003156562418
0.003219866787
0.003121877237
0.003169870878
0.003105047704
0.003082005577
0.003056710315
0.003010217882
0.003000054256
0.002922277193
0.002879838842
0.002838325193
0.002675168272
0.002739672538
0.002394869328
0.00255170631
0.001997501313
0.002156350597
0.0009431631765
0.001674427899
-0.002057314806
-0.06514766238
-0.06167540534
-0.06095880331
-0.0571509342
-0.05638619296
-0.05601472545
-0.05645790165
-0.06014502716
-0.06306946287
-0.06868726398
-0.07401411709
-0.08304255857
-0.09213676953
-0.1047708617
-0.1170628992
-0.1317137322
-0.1447761027
-0.1585252631
-0.1689677048
-0.1786508291
-0.1837110971
-0.1871918252
-0.1861497228
-0.183579829
-0.177708997
-0.1709093621
-0.1624038096
-0.1536410632
-0.1444810126
-0.1356214168
-0.1270837752
-0.119147641
-0.1118312664
-0.105183104
-0.09921041448
-0.0938820145
-0.08914658776
-0.08492298934
-0.08117768
-0.07782460536
-0.07483946539
-0.07213622604
-0.0697085645
-0.06746859063
-0.0654307262
-0.06350224808
-0.06171833383
-0.0599773549
-0.05833647261
-0.05667775407
-0.05508666729
-0.05341518888
-0.05179331425
-0.05002485613
-0.04829764022
-0.04636421915
-0.04446571655
-0.04232289941
-0.04020988155
-0.0378517215
-0.03552758219
-0.03300405752
-0.03054058127
-0.02796405702
-0.02549167695
-0.02300998646
-0.02067000379
-0.01840991776
-0.01631217891
-0.01434796487
-0.01255033306
-0.01090438082
-0.009415960281
-0.008073412705
-0.006870517391
-0.00579572705
-0.00483878169
-0.003988459892
-0.003234184577
-0.00256587745
-0.001974104976
-0.001450422788
-0.0009869075193
-0.000576845762
-0.0002137278682
0.0001075731415
0.0003923731008
0.0006444938953
0.0008682119512
0.001066442331
0.001242401285
0.001398632729
0.001537059886
0.00166047586
0.001769263268
0.001866750619
0.001952266602
0.002028802585
0.002096389565
0.002156830142
0.002211679242
0.002263182357
0.002312135542
0.002354650185
0.002389513643
0.002423258704
0.002452331727
0.002479503227
0.002516509856
0.002556160088
0.002558362801
0.002565943639
0.002573989033
0.002574963462
0.002591278867
0.002595234762
0.002596019985
0.002597611226
0.00259943252
0.002596925502
0.002591445223
0.002584631988
0.002575958366
0.002562433817
0.002551803498
0.002543305022
0.002537107954
0.002547506778
0.002551330381
0.002561574557
0.002543695651
0.002508640627
0.002530166929
0.002531208459
0.002516918429
0.002523581795
0.002503052538
0.002511911825
0.002526247309
0.002508027038
0.002473456535
0.00245778031
0.002456401597
0.002443941224
0.002415627567
0.002396051874
0.002385000786
0.002373273612
0.002367016428
0.002364240395
0.002376916095
0.002363516907
0.002345772537
0.002325848357
0.002335272577
0.002359296718
0.002341675914
0.002297650868
0.002263632092
0.002246929438
0.002257588684
0.00226775464
0.002252234747
0.002250907492
0.002241071257
0.002227595472
0.002209731823
0.002190562216
0.002170891055
0.002153039821
0.002136660994
0.002119926107
0.002103692518
0.002087779343
0.002072022895
0.002056477184
0.00204117429
0.002026119416
0.002011309224
0.001996717623
0.001982305444
0.001968031745
0.001953854734
0.001939739495
0.00192565661
0.001911584561
0.001897507572
0.001883415729
0.001869302965
0.001855166767
0.001841006427
0.001826823332
0.00181261907
0.001798396954
0.001784159017
0.001769909647
0.001755650132
0.001741385799
0.001727116319
0.001712848152
0.001698578691
0.00168431548
0.001670053518
0.001655800591
0.001641550208
0.001627308109
0.001613069237
0.00159883133
0.001584600461
0.001570347104
0.001556122698
0.001541806718
0.001527607506
0.001513116151
0.001499034643
0.001484097289
0.001470424802
0.001454419676
0.001441900958
0.001423498049
0.001413758158
0.001390390751
0.001386477522
0.001353807158
0.001360521383
0.001312423981
0.001335673223
0.001265751336
0.001309705934
0.001215697418
0.001276292449
0.001168768926
0.001222276569
0.00113769778
0.001126401669
0.001074172817
0.0010390074
0.0009982269988
0.0009525732947
0.0008694754685
0.0008723317444
0.0006758838846
0.0008072671392
0.0004432092117
0.0007212350585
0.0001563573104
0.0005977581877
-0.0005393800951
0.0007723584343
-0.002716190955
-0.0441527109
-0.04137922591
-0.04101389831
-0.0391148218
-0.03949314124
-0.04071946695
-0.0429119606
-0.04737987089
-0.05201433293
-0.05957992389
-0.06691792627
-0.07776827254
-0.08909503852
-0.1038003972
-0.1187302088
-0.1356605801
-0.1515341355
-0.1672380695
-0.1796291832
-0.1900908842
-0.1952001813
-0.1980426447
-0.1955281568
-0.1914679142
-0.1836220158
-0.175183559
-0.1648668449
-0.1546411091
-0.1441068381
-0.1341559244
-0.1247535649
-0.1162010895
-0.1084753702
-0.1016188195
-0.0955638902
-0.09021220158
-0.08551877794
-0.08137891963
-0.07774538115
-0.07451550312
-0.07166070814
-0.06908467397
-0.0667826194
-0.06466106472
-0.06273700532
-0.0609172976
-0.05923514447
-0.05759646879
-0.05604653192
-0.05448550707
-0.05297538608
-0.05139529022
-0.04984078406
-0.048145091
-0.04647163847
-0.04457876205
-0.04270668922
-0.04055861167
-0.03842774163
-0.03600792473
-0.03361719255
-0.03098102001
-0.02841699117
-0.02570721643
-0.02313647161
-0.0205419768
-0.01812934155
-0.01579836229
-0.01366149624
-0.01166765541
-0.009861119528
-0.008216136225
-0.006740716358
-0.005418059345
-0.004241223698
-0.003196135536
-0.002271451527
-0.001454615753
-0.0007342541412
-9.94870996e-05
0.0004595724424
0.0009519396541
0.001385669587
0.001767956983
0.002105135012
0.002402786518
0.002665805501
0.002898415027
0.00310442678
0.003286884498
0.003448960498
0.00359250582
0.003720652838
0.003833803781
0.003935690246
0.004025179347
0.004106390211
0.004177999479
0.00424196125
0.004299896967
0.004348746168
0.004391549164
0.004426078608
0.004453548137
0.004480899442
0.004504653133
0.004525750531
0.004538574074
0.00454416192
0.004552744762
0.004573952998
0.004586511877
0.004592427462
0.00459657821
0.004595928282
0.004601244003
0.004607390795
0.004610411979
0.004612488769
0.004614025463
0.00461614195
0.004619086587
0.004621155611
0.004637475852
0.004644179005
0.004630453734
0.004610104924
0.00457837697
0.004579493915
0.004589930082
0.004584834995
0.004612413652
0.004602495274
0.004575437077
0.004554771708
0.004515808443
0.004502916945
0.00449966078
0.00453232223
0.004561517229
0.00454682294
0.004520278932
0.004536366369
0.004550015193
0.004513327026
0.004466926771
0.004466641463
0.004471883932
0.004448368787
0.004449457397
0.004420814896
0.004412610415
0.004403353493
0.004401007729
0.004390356171
0.004367878795
0.004364117958
0.004362196261
0.004371897765
0.004370989282
0.004354289617
0.004334801578
0.004305100668
0.004269520424
0.004260308342
0.004250871701
0.004240289638
0.004232286652
0.004220458569
0.004210281046
0.004202159318
0.004192614859
0.004181529959
0.00416994623
0.004157996062
0.004145763478
0.004133240424
0.004120429097
0.004107341805
0.004094003291
0.004080450483
0.004066724345
0.004052864187
0.004038905304
0.004024876182
0.004010799192
0.003996690637
0.0039825619
0.003968420867
0.003954272469
0.003940120231
0.003925966165
0.003911812391
0.003897659902
0.00388351113
0.003869366655
0.003855230017
0.003841101217
0.003826985295
0.003812880994
0.003798795011
0.003784724189
0.003770676585
0.003756646832
0.003742643753
0.003728659233
0.003714703561
0.003700761951
0.003686853701
0.003672940241
0.003659080832
0.00364515474
0.003631362877
0.00361732264
0.003603680932
0.003589280833
0.003576048253
0.003560719324
0.003548564785
0.003531081113
0.00352148382
0.003499453409
0.003495233983
0.003464541794
0.003470257555
0.003424894915
0.003446467703
0.00337957872
0.003422153637
0.003329402716
0.003392349906
0.00327860557
0.003347304918
0.003236841
0.003269895086
0.003188953594
0.003167470693
0.003074369972
0.003106990812
0.00289807856
0.003047528342
0.002635322429
0.002950610726
0.002318076726
0.002730526741
0.001905350582
0.002294701637
0.000958158784
0.00170109875
-0.001429251076
-0.02758327779
-0.02694538907
-0.02740287016
-0.02705889203
-0.02807419101
-0.03011252688
-0.03283774258
-0.03777367368
-0.04339351134
-0.05192522778
-0.06082232739
-0.0735462127
-0.08709149902
-0.1043827197
-0.1222340243
-0.1423877096
-0.1615734204
-0.1806661864
-0.1956091128
-0.2087060599
-0.2141816232
-0.2172942349
-0.2129335836
-0.2071153969
-0.1961275743
-0.1850362974
-0.1717380732
-0.1591100244
-0.1465552204
-0.1351451796
-0.1246450209
-0.115382211
-0.107201571
-0.1001213166
-0.09396633733
-0.0887212936
-0.08427412383
-0.08040363728
-0.07707303747
-0.0741525289
-0.07160841391
-0.06933311796
-0.06731747633
-0.06546667704
-0.06379202277
-0.06220735981
-0.06073530476
-0.05929938139
-0.0579222559
-0.05654016867
-0.05516694287
-0.05373994847
-0.05230123524
-0.05072228996
-0.04914249106
-0.04732054569
-0.04550674958
-0.04336641575
-0.04123484147
-0.03873943572
-0.03626243059
-0.03346029151
-0.03073299001
-0.02779689922
-0.02503772654
-0.02222689695
-0.01965598589
-0.01717387068
-0.01494175711
-0.01287771096
-0.01104359793
-0.009396609181
-0.007946532616
-0.00666675981
-0.005546972748
-0.004567037762
-0.003711921188
-0.002965464657
-0.002313819354
-0.001744339207
-0.001245943089
-0.0008091404069
-0.0004255101908
-8.817918649e-05
0.0002092082722
0.0004714915773
0.0007035475223
0.0009087195993
0.001090796774
0.00125213776
0.001395565969
0.00152302732
0.001636200938
0.001737281894
0.00182650486
0.001906671514
0.001976995649
0.00203987669
0.002095770695
0.002144502231
0.002189903398
0.002230779328
0.002268664868
0.002307581118
0.002338430631
0.002367026847
0.002388669965
0.002415394023
0.002440663829
0.002448484372
0.002461031091
0.002473609316
0.002487732343
0.00249946257
0.002504437199
0.002506456485
0.002506710667
0.00250677187
0.002505122806
0.002502644852
0.002497557713
0.002475302217
0.002457761272
0.002455913179
0.002448736041
0.002444538653
0.002454110854
0.002460605551
0.002442710042
0.002422712548
0.002442751322
0.002439311663
0.002402606307
0.002387500544
0.002401379354
0.002436859686
0.002462486827
0.002462469102
0.002418558453
0.002362774354
0.002338448553
0.002341376495
0.002330016146
0.00233096463
0.002351727683
0.002366875597
0.002332971797
0.002315115735
0.002298370557
0.002261950421
0.002243922972
0.00224832254
0.00226521894
0.002243017169
0.002227210086
0.002213054444
0.002188599215
0.002194154869
0.002206420969
0.002180060148
0.002165650738
0.002156140878
0.002152085755
0.00214708312
0.002124751734
0.002112091692
0.002099805374
0.002084628296
0.00207711415
0.002062747274
0.002041070389
0.002022067266
0.002006123641
0.001990344185
0.001974995144
0.001959927192
0.001945066111
0.001930414682
0.001915956049
0.001901665612
0.001887508518
0.001873450212
0.001859455492
0.001845495706
0.001831547209
0.001817593467
0.001803623114
0.001789629913
0.001775610867
0.001761566135
0.001747497129
0.001733407176
0.001719299341
0.001705178322
0.001691047248
0.001676911542
0.001662773454
0.001648639107
0.001634509245
0.001620390831
0.001606282701
0.001592192572
0.001578117393
0.001564064851
0.001550030903
0.001536021154
0.00152203296
0.001508065256
0.001494123812
0.001480186739
0.001466293435
0.001452352716
0.001438523845
0.001424491085
0.001410799815
0.001396457263
0.001383135316
0.00136797423
0.001355623681
0.001338538837
0.001328505193
0.001307313229
0.00130220507
0.001273074292
0.001277229225
0.001234362028
0.001253747295
0.001190000832
0.001230718464
0.001140077049
0.0012045899
0.001087246122
0.001167833721
0.001037778497
0.001107296517
0.0009955299634
0.001011545907
0.000870576511
0.0009645963315
0.000687836027
0.0009694646907
0.0004768095647
0.0009085798219
0.0002819298467
0.0007898328135
1.674364099e-05
0.0007062541438
-0.0004695682852
0.0007000669633
-0.001913414237
-0.009437089548
-0.008802698807
-0.009169235894
-0.009283481858
-0.01065349077
-0.01313988818
-0.01671656019
-0.02223940609
-0.02908471417
-0.03896727253
-0.05003166684
-0.06496416564
-0.08183967875
-0.1024220677
-0.1249869052
-0.1492807356
-0.1741558706
-0.1965831861
-0.215774423
-0.2293065954
-0.2350807421
-0.2362040737
-0.2290522698
-0.2204455076
-0.2062764429
-0.1927544688
-0.1765465001
-0.161718
-0.1469293734
-0.1338173457
-0.1220194517
-0.1119013581
-0.1032200614
-0.09590004904
-0.08976672357
-0.08457155945
-0.08016558383
-0.07643821249
-0.07327354664
-0.07053057432
-0.06816450579
-0.06605913675
-0.064205354
-0.0625049715
-0.06097107417
-0.0595227526
-0.0581736698
-0.05687039987
-0.05560307564
-0.05435626591
-0.05308920974
-0.05180522924
-0.05044922785
-0.0490055648
-0.04749837135
-0.04577775639
-0.04400577325
-0.04190239756
-0.03974214784
-0.03719080726
-0.0346022183
-0.03164528947
-0.02874494174
-0.02560606615
-0.0226960728
-0.01971315613
-0.01704263446
-0.01445585752
-0.01217365603
-0.0100664216
-0.008221153498
-0.006572818986
-0.005137586429
-0.003879488942
-0.002788451259
-0.00184055491
-0.001019960925
-0.0003089960942
0.0003068097189
0.0008408281823
0.001304508001
0.001707861604
0.002059449422
0.002366641599
0.002635669161
0.002871884406
0.003079766293
0.003263160327
0.003425313285
0.003568910475
0.003696472943
0.00380963207
0.003910776077
0.004000308296
0.004081122027
0.004152244078
0.004217145072
0.00427427252
0.004326152487
0.004372670653
0.004413107666
0.00444879076
0.004478798662
0.004501800978
0.004521914688
0.004542001587
0.004559102426
0.004570397917
0.004577044403
0.004588083386
0.004597980807
0.004604996124
0.004609980751
0.004613145151
0.004616040081
0.004618305988
0.004620009153
0.00462067372
0.00462149472
0.004619832713
0.004622654483
0.004654490854
0.0046722878
0.00465031033
0.00463407392
0.004637891869
0.004623651095
0.004619758366
0.004622091229
0.004608745776
0.004584182894
0.004559332551
0.004576378479
0.004614201995
0.004607178425
0.004587184439
0.004561519464
0.004503344435
0.004467649903
0.004475375691
0.004506875737
0.004511322778
0.004479945844
0.004462421922
0.004480282432
0.004480269956
0.004476200556
0.004467575357
0.004480303012
0.004464081259
0.004433199406
0.004406023983
0.004389373102
0.004416375286
0.00441635971
0.004390884366
0.004380483373
0.004367820315
0.004343718457
0.004349108557
0.004329883201
0.0043158317
0.004296392139
0.004273831535
0.004270147858
0.004251959023
0.004235161881
0.004224536229
0.004209904308
0.004197451675
0.004187856479
0.004177043215
0.004164957064
0.004152480539
0.004139731919
0.004126783996
0.004113627628
0.004100264278
0.004086702732
0.004072961035
0.004059066475
0.004045049442
0.004030938383
0.004016758445
0.004002529248
0.003988265401
0.003973976922
0.003959669907
0.003945347992
0.003931012497
0.003916664107
0.003902302192
0.003887926822
0.003873536805
0.003859132797
0.003844713404
0.003830280322
0.003815831634
0.003801370192
0.003786892972
0.003772403719
0.003757897872
0.003743379432
0.003728842128
0.003714289452
0.003699712856
0.003685115698