/*--------------------------------*- C++ -*----------------------------------*\
| =========                 |                                                 |
| \\      /  F ield         | OpenFOAM: The Open Source CFD Toolbox           |
|  \\    /   O peration     | Version:  v1806                                 |
|   \\  /    A nd           | Web:      www.OpenFOAM.com                      |
|    \\/     M anipulation  |                                                 |
\*---------------------------------------------------------------------------*/
FoamFile
{
    version     2.0;
    format      ascii;
    class       surfaceScalarField;
    location    "0.1";
    object      phi;
}
// * * * * * * * * * * * * * * * * * * * * * * * * * * * * * * * * * * * * * //

dimensions      [0 3 -1 0 0 0 0];
oriented        oriented;


internalField   nonuniform List<scalar> 
24493
(
0.0009434638134
5.653618655e-05
0.0009017003102
4.176350386e-05
0.0008780356313
2.366467941e-05
0.0008582767314
1.975890039e-05
0.0008407179817
1.755875021e-05
0.0008288772324
1.184074973e-05
0.0008274013517
1.475881198e-06
0.000837637506
-1.023615377e-05
0.0008598961405
-2.225863404e-05
0.0008893943934
-2.949825249e-05
0.0009222828313
-3.288843739e-05
0.0009543195524
-3.203672059e-05
0.000984529262
-3.020970924e-05
0.001011298419
-2.676915689e-05
0.001035252579
-2.395415952e-05
0.0010555965
-2.034392054e-05
0.001073220743
-1.762424257e-05
0.001087414109
-1.419336549e-05
0.001098954519
-1.154040972e-05
0.001107142333
-8.187813455e-06
0.00111265538
-5.513046836e-06
0.00111534566
-2.69027897e-06
0.001115348844
-3.183500819e-09
0.001113174653
2.174190525e-06
0.001109243584
3.931069292e-06
0.001103766994
5.476590755e-06
0.001097202208
6.564786265e-06
0.001089861185
7.341022951e-06
0.001082110162
7.751023091e-06
0.001074262162
7.848000711e-06
0.001066584884
7.677277599e-06
0.001059264472
7.320412399e-06
0.001052425493
6.838979497e-06
0.001046141324
6.284168743e-06
0.001040442824
5.698500238e-06
0.001035334475
5.108349474e-06
0.001030795804
4.538670578e-06
0.001026794465
4.001339616e-06
0.001023282622
3.511842774e-06
0.001020212179
3.070442509e-06
0.00101752531
2.68686911e-06
0.001015174167
2.351143848e-06
0.001013101064
2.073102467e-06
0.001011267013
1.834051027e-06
0.001009617503
1.649510139e-06
0.001008125737
1.491765759e-06
0.001006738976
1.386760914e-06
0.00100544374
1.295235616e-06
0.001004185988
1.257752065e-06
0.001002966236
1.219751588e-06
0.001001726704
1.239532121e-06
0.001000481767
1.244937312e-06
0.0009991702161
1.311550219e-06
0.0009978185499
1.351665996e-06
0.0009963660992
1.45245048e-06
0.0009948481635
1.517935453e-06
0.0009932116452
1.636518003e-06
0.0009914967446
1.714900372e-06
0.0009896657686
1.830975783e-06
0.0009877606206
1.905147716e-06
0.0009857638431
1.996777262e-06
0.0009837169997
2.046843103e-06
0.0009816217791
2.095220392e-06
0.0009795171188
2.104660048e-06
0.0009774174849
2.099633579e-06
0.0009753558357
2.06164894e-06
0.0009733507813
2.005054124e-06
0.0009714267162
1.924064879e-06
0.0009695993206
1.827395343e-06
0.0009678835574
1.715762973e-06
0.0009662885964
1.594960737e-06
0.0009648206589
1.467937283e-06
0.0009634818937
1.338765011e-06
0.0009622715936
1.210299844e-06
0.0009611862734
1.085320084e-06
0.0009602205042
9.657689966e-07
0.0009593673344
8.531696374e-07
0.0009586187629
7.485713004e-07
0.0009579662197
6.525430914e-07
0.000957400949
5.652706917e-07
0.0009569142468
4.86702076e-07
0.00095649766
4.165868179e-07
0.0009561431767
3.544832563e-07
0.0009558433232
2.998534763e-07
0.0009555913013
2.520219559e-07
0.0009553807753
2.105260889e-07
0.0009552063697
1.744057278e-07
0.0009550626109
1.437588928e-07
0.0009549458404
1.167705937e-07
0.000954850969
9.487162876e-08
0.0009547760719
7.489730736e-08
0.00095471672
5.93521694e-08
0.0009546711733
4.5546975e-08
0.0009546375802
3.359350208e-08
0.0009546123995
2.518107609e-08
0.000954596298
1.610186606e-08
0.0009545858019
1.049656614e-08
0.0009545814981
4.304286697e-09
0.0009545837627
-2.264128176e-09
0.0009545880438
-4.280578302e-09
0.0009545916622
-3.617762674e-09
0.0009545964213
-4.758529974e-09
0.0009546049466
-8.524664253e-09
0.0009546139065
-8.959230441e-09
0.0009546231046
-9.197293652e-09
0.0009546347759
-1.167057904e-08
0.000954647
-1.222326792e-08
0.000954659694
-1.269316457e-08
0.0009546774598
-1.77648878e-08
0.0009547000988
-2.263811179e-08
0.0009547241293
-2.402947741e-08
0.0009547446093
-2.047905826e-08
0.0009547580353
-1.342486059e-08
0.0009547677286
-9.692227304e-09
0.0009547774794
-9.749668125e-09
0.0009547871454
-9.664852941e-09
0.0009547965821
-9.435484474e-09
0.0009548062463
-9.662965703e-09
0.0009548143606
-8.112926237e-09
0.0009548205202
-6.158356879e-09
0.0009548258678
-5.346231473e-09
0.0009548305263
-4.657029468e-09
0.0009548335774
-3.049737684e-09
0.0009548343602
-7.813676889e-10
0.0009548331994
1.16231932e-09
0.000954832805
3.958669e-10
0.0009548337883
-9.817439973e-10
0.0009548342524
-4.624886182e-10
0.0009548370629
-2.808961769e-09
0.0009548445905
-7.52595801e-09
0.0009548519399
-7.347731083e-09
0.0009548562391
-4.297524962e-09
0.0009548612503
-5.009476694e-09
0.0009548681189
-6.866869044e-09
0.0009548746856
-6.564963888e-09
0.0009548812515
-6.564121552e-09
0.0009548879051
-6.651818353e-09
0.0009548928146
-4.907637214e-09
0.0009548959591
-3.142733648e-09
0.000954898142
-2.181035328e-09
0.0009548972995
8.443721225e-10
0.0009548915644
5.73700167e-09
0.0009548843021
7.264077512e-09
0.0009548828293
1.474692366e-09
0.0009548885639
-5.732639543e-09
0.0009548955105
-6.944813425e-09
0.0009548969612
-1.448818353e-09
0.0009548965662
3.969584739e-10
0.0009548996583
-3.090249925e-09
0.0009549032162
-3.555945385e-09
0.0009549050323
-1.81412798e-09
0.0009548990057
6.028486492e-09
0.0009548883535
1.065405677e-08
0.0009548830152
5.34007811e-09
0.0009548853317
-2.314619142e-09
0.0009548841181
1.215352556e-09
0.0009548763403
7.779686063e-09
0.0009548696777
6.664468159e-09
0.0009548681353
1.544299799e-09
0.0009548696909
-1.553721947e-09
0.0009548716493
-1.956516535e-09
0.0009548720766
-4.253856476e-10
0.0009548632031
8.875304502e-09
0.0009548402155
2.298946375e-08
0.0009548191099
2.110744739e-08
0.0009548133761
5.735621277e-09
0.0009548186337
-5.255959478e-09
0.0009548172125
1.423016538e-09
0.0009548047326
1.248167447e-08
0.0009547873227
1.741172633e-08
0.0009547688792
1.844529474e-08
0.0009547509714
1.790962472e-08
0.0009547340616
1.691149034e-08
0.0009547179077
1.615562783e-08
0.0009547018368
1.607265736e-08
0.0009546852835
1.655505511e-08
0.0009546679645
1.732067229e-08
0.0009546497145
1.825165877e-08
0.0009546303451
1.9371004e-08
0.0009546096409
2.07057964e-08
0.0009545873963
2.224619306e-08
0.0009545634268
2.397108266e-08
0.0009545375605
2.586781081e-08
0.0009545096268
2.793520912e-08
0.0009544794501
3.017814545e-08
0.000954446847
3.260457337e-08
0.000954411624
3.522443236e-08
0.000954373575
3.805040047e-08
0.0009543324788
4.109756253e-08
0.0009542880966
4.43835312e-08
0.0009542401703
4.792760197e-08
0.0009541884207
5.175088239e-08
0.0009541325458
5.587617523e-08
0.0009540722192
6.032784181e-08
0.0009540070879
6.513247242e-08
0.0009539367708
7.031829974e-08
0.0009538608555
7.591650458e-08
0.0009537788978
8.195874154e-08
0.0009536904151
8.848387281e-08
0.0009535948918
9.552429545e-08
0.0009534917615
1.03131359e-07
0.0009533804257
1.113368232e-07
0.0009532602244
1.202022441e-07
0.0009531304507
1.297747047e-07
0.0009529903537
1.400979276e-07
0.0009528390847
1.512698842e-07
0.0009526757797
1.633058635e-07
0.0009524994685
1.763120094e-07
0.0009523090881
1.903812862e-07
0.0009521035568
2.055320293e-07
0.0009518816411
2.219165248e-07
0.0009516420068
2.396349878e-07
0.0009513832611
2.587464237e-07
0.0009511038908
2.793710129e-07
0.000950802196
3.01695413e-07
0.0009504763914
3.258052142e-07
0.000950124511
3.518810778e-07
0.0009497445558
3.79955767e-07
0.0009493341098
4.10446589e-07
0.0009488909317
4.431786193e-07
0.0009484119264
4.7900584e-07
0.0009478948619
5.170649156e-07
0.0009473355111
5.593513525e-07
0.0009467321834
6.033280967e-07
0.0009460785025
6.536813265e-07
0.0009453744597
7.040432562e-07
0.0009446097052
7.647548847e-07
0.0009437879906
8.217149854e-07
0.0009428920847
8.959062787e-07
0.000941932661
9.594241024e-07
0.0009408815264
1.051134937e-06
0.0009397610733
1.120453334e-06
0.0009385241012
1.236972393e-06
0.0009372163348
1.307766683e-06
0.0009357551868
1.461148245e-06
0.0009342252624
1.529924693e-06
0.0009324929763
1.732286259e-06
0.0009307062863
1.786690228e-06
0.0009286368726
2.069413896e-06
0.0009265368307
2.100042064e-06
0.0009240670263
2.469804533e-06
0.0009215528169
2.514209539e-06
0.0009186036603
2.949156676e-06
0.0009155666331
3.037027386e-06
0.000911968133
3.59850018e-06
0.0009082826381
3.685494989e-06
0.0009037952226
4.487415537e-06
0.0008991525957
4.642626956e-06
0.0008934946857
5.65791e-06
6.544375436e-06
0.0009837280481
7.280813907e-05
0.0009684114608
5.708009216e-05
0.00095713478
3.494136114e-05
0.000950653543
2.624013826e-05
0.0009458755853
2.23367088e-05
0.0009387705166
1.894581926e-05
0.0009316557054
8.590693263e-06
0.0009306657622
-9.24620977e-06
0.0009392950184
-3.088788936e-05
0.0009552360847
-4.543931798e-05
0.0009774478774
-5.510022929e-05
0.001001856751
-5.644559301e-05
0.00102728797
-5.564092813e-05
0.00105135122
-5.083240534e-05
0.001073967949
-4.657088864e-05
0.001094013984
-4.03899541e-05
0.001111769165
-3.537942305e-05
0.001126574069
-2.899826841e-05
0.001138714596
-2.368093654e-05
0.001147836001
-1.730921769e-05
0.001154267581
-1.194462644e-05
0.00115772694
-6.149636974e-06
0.001158878095
-1.154338292e-06
0.001157586456
3.465830096e-06
0.001154369113
7.148413485e-06
0.001149568394
1.02773093e-05
0.001143611247
1.252193405e-05
0.001136841712
1.411055879e-05
0.001129609887
1.498284766e-05
0.001122183614
1.527427432e-05
0.001114795848
1.506504439e-05
0.001107624742
1.449151821e-05
0.00110080121
1.366251234e-05
0.00109441319
1.26721883e-05
0.001088514054
1.159763681e-05
0.001083130543
1.049186008e-05
0.001078262517
9.406696701e-06
0.001073896464
8.367393388e-06
0.001070001353
7.406953917e-06
0.0010665437
6.528095584e-06
0.001063477417
5.753151196e-06
0.001060763637
5.064924329e-06
0.001058350828
4.485911639e-06
0.001056203683
3.981195931e-06
0.001054269438
3.583755133e-06
0.001052521491
3.239712226e-06
0.001050906577
3.001675053e-06
0.001049409721
2.792090935e-06
0.001047975104
2.692368886e-06
0.00104660119
2.593664709e-06
0.001045227524
2.613197779e-06
0.001043866696
2.60576526e-06
0.001042453806
2.724439982e-06
0.001041014556
2.790915451e-06
0.001039483399
2.983606792e-06
0.001037895868
3.105466265e-06
0.001036193134
3.339251941e-06
0.001034416447
3.491586872e-06
0.001032522411
3.725011329e-06
0.001030554397
3.8731609e-06
0.001028490233
4.060941225e-06
0.001026373339
4.163736676e-06
0.001024202212
4.266346481e-06
0.001022017697
4.289174785e-06
0.001019832418
4.284911863e-06
0.001017680698
4.213368869e-06
0.001015580361
4.10539096e-06
0.001013556711
3.947713795e-06
0.001011625494
3.758612273e-06
0.001009802609
3.538647079e-06
0.001008097966
3.299604069e-06
0.001006519036
3.046866674e-06
0.001005069195
2.788605681e-06
0.001003749051
2.530443327e-06
0.001002556481
2.277890073e-06
0.001001487217
2.035031934e-06
0.001000535283
1.80510373e-06
0.0009996935211
1.590333137e-06
0.0009989539687
1.392095282e-06
0.0009983081684
1.211070902e-06
0.0009977475795
1.047290949e-06
0.0009972637363
9.004299813e-07
0.0009968485652
7.696543438e-07
0.0009964942565
6.541622673e-07
0.0009961937222
5.525563367e-07
0.0009959401295
4.641189831e-07
0.000995727693
3.868424617e-07
0.000995550641
3.208112258e-07
0.000995404443
2.629689055e-07
0.0009952845357
2.147793511e-07
0.0009951869826
1.724508595e-07
0.0009951091572
1.371780856e-07
0.0009950465384
1.081663681e-07
0.0009949989593
8.117334218e-08
0.0009949613223
6.281874029e-08
0.0009949343727
4.305233675e-08
0.0009949148455
3.002462116e-08
0.0009949001887
1.89619566e-08
0.0009948915405
6.385051511e-09
0.0009948856385
1.6225252e-09
0.0009948873395
-5.317708021e-09
0.0009948927835
-1.020136437e-08
0.0009948972016
-1.294153211e-08
0.000994903366
-1.512230152e-08
0.0009949152582
-2.108806956e-08
0.0009949278367
-2.424769076e-08
0.0009949368809
-2.126588532e-08
0.000994942383
-1.819375191e-08
0.0009949484982
-2.387841684e-08
0.0009949564333
-3.05714706e-08
0.0009949649566
-3.255092474e-08
0.0009949775301
-3.30506753e-08
0.0009949911892
-2.708198439e-08
0.0009950027781
-2.127904929e-08
0.0009950125674
-1.953690849e-08
0.0009950223493
-1.944450636e-08
0.0009950311923
-1.827628605e-08
0.0009950376416
-1.610986868e-08
0.0009950433713
-1.384030268e-08
0.0009950490702
-1.185481119e-08
0.0009950551449
-1.141849454e-08
0.0009950599768
-9.486354104e-09
0.0009950648876
-7.957932679e-09
0.0009950722125
-8.103538438e-09
0.0009950798828
-6.505298363e-09
0.000995086104
-5.822561791e-09
0.000995090216
-5.090963119e-09
0.0009950934886
-3.732177088e-09
0.0009950964111
-5.728584682e-09
0.0009950972619
-8.373796342e-09
0.0009950987425
-8.825331548e-09
0.000995103563
-9.11496461e-09
0.0009951066491
-8.092534269e-09
0.0009951094585
-9.67313517e-09
0.0009951140019
-1.110517662e-08
0.0009951176989
-1.025798192e-08
0.0009951220496
-1.099926527e-08
0.0009951284524
-1.130718313e-08
0.0009951356804
-1.036736761e-08
0.0009951408494
-7.346787664e-09
0.0009951455448
-3.847667073e-09
0.0009951512796
5.524202035e-12
0.0009951558611
2.686057387e-09
0.0009951570234
3.157793385e-10
0.0009951527475
-1.453410414e-09
0.0009951463183
-5.122890311e-10
0.0009951470461
-2.173253324e-09
0.000995150105
-2.658645441e-09
0.0009951486399
-1.621725291e-09
0.0009951430623
2.025089369e-09
0.0009951342934
6.95819189e-09
0.0009951301946
1.013058144e-08
0.0009951328252
8.026764557e-09
0.0009951307684
7.400106327e-09
0.0009951223525
6.104539514e-09
0.0009951193827
4.188505157e-09
0.0009951218481
5.317627627e-09
0.000995122739
5.776931616e-09
0.0009951194516
4.834981823e-09
0.0009951122815
5.619845628e-09
0.0009951042687
6.059619502e-09
0.0009950970332
6.81350885e-09
0.0009950964349
9.476919586e-09
0.0009951031561
1.62715157e-08
0.0009951047235
1.954320699e-08
0.0009950965611
1.390113962e-08
0.0009950820361
9.272271248e-09
0.0009950676858
1.577650421e-08
0.0009950566564
2.351433623e-08
0.0009950474176
2.665380675e-08
0.0009950383519
2.75141885e-08
0.0009950286189
2.764571334e-08
0.0009950178709
2.766259371e-08
0.0009950056785
2.835111038e-08
0.0009949917233
3.003093005e-08
0.0009949759478
3.233354965e-08
0.0009949585018
3.476965311e-08
0.0009949395591
3.719721845e-08
0.0009949192017
3.973130949e-08
0.0009948974043
4.250604004e-08
0.0009948740693
4.558396762e-08
0.0009948490608
4.898230235e-08
0.0009948222218
5.27095079e-08
0.0009947933805
5.677915857e-08
0.0009947623529
6.120830885e-08
0.0009947289434
6.601669831e-08
0.0009946929441
7.122614346e-08
0.000994654134
7.68629682e-08
0.0009946122769
8.29570729e-08
0.0009945671203
8.95424509e-08
0.0009945183935
9.665673969e-08
0.0009944658063
1.043403325e-07
0.0009944090465
1.12638168e-07
0.0009943477783
1.215981313e-07
0.0009942816406
1.312722597e-07
0.0009942102434
1.417176162e-07
0.0009941331671
1.529947699e-07
0.0009940499576
1.651701637e-07
0.0009939601285
1.783149008e-07
0.0009938631475
1.925071165e-07
0.0009937584514
2.078292449e-07
0.0009936454174
2.243725743e-07
0.0009935233881
2.422333071e-07
0.0009933916454
2.615190893e-07
0.0009932494034
2.82341518e-07
0.000993095849
3.048258086e-07
0.0009929300513
3.291051062e-07
0.0009927510447
3.553200303e-07
0.0009925577941
3.836333057e-07
0.0009923491204
4.142070532e-07
0.0009921238116
4.472266624e-07
0.0009918805591
4.828888066e-07
0.0009916178881
5.214186086e-07
0.000991334246
5.630142534e-07
0.0009910279497
6.079928829e-07
0.0009906972384
6.565176352e-07
0.0009903400401
7.090803759e-07
0.0009899543431
7.656537646e-07
0.0009895375974
8.271932034e-07
0.0009890877304
8.930465402e-07
0.0009886013591
9.653780823e-07
0.0009880766624
1.04176247e-06
0.0009875086766
1.127337972e-06
0.0009868966902
1.215315296e-06
0.0009862327232
1.317649022e-06
0.000985518989
1.417778154e-06
0.000984741832
1.541912577e-06
0.0009839094534
1.654094301e-06
0.0009829985613
1.806798997e-06
0.0009820273426
1.930643336e-06
0.0009809585265
2.119951606e-06
0.0009798228891
2.256091266e-06
0.000978569389
2.490472976e-06
0.0009772386572
2.638498891e-06
0.0009757619874
2.93781843e-06
0.0009742101365
3.081776066e-06
0.000972456022
3.486401049e-06
0.0009706431532
3.599559324e-06
0.0009685536672
4.158900194e-06
0.0009664213636
4.232345951e-06
0.0009639447089
4.94645952e-06
0.0009613862658
5.072652827e-06
0.000958471526
5.863896663e-06
0.0009553865763
6.121977264e-06
0.0009518894322
7.095644371e-06
0.0009482115213
7.363406038e-06
0.0009439623582
8.736578748e-06
0.0009395063517
9.09863355e-06
0.0009344884981
1.067576358e-05
1.223843133e-05
0.0009911144365
8.169370307e-05
0.0009810231004
6.717142909e-05
0.000971085678
4.487878436e-05
0.0009646553854
3.267043162e-05
0.000960145735
2.684635993e-05
0.0009560502111
2.304134392e-05
0.000952125049
1.251585611e-05
0.0009518647557
-8.985915753e-06
0.0009590795484
-3.810268133e-05
0.0009721864641
-5.854623294e-05
0.0009911682804
-7.408204488e-05
0.001012679645
-7.795695654e-05
0.001035934856
-7.889613884e-05
0.001058569583
-7.346713172e-05
0.001080433199
-6.843450361e-05
0.001100144664
-6.01014186e-05
0.001117929041
-5.316379987e-05
0.001132793062
-4.386228868e-05
0.001145100143
-3.598801673e-05
0.001154146278
-2.635535215e-05
0.001160381685
-1.818003244e-05
0.001163542319
-9.310271189e-06
0.001164262056
-1.874074766e-06
0.001162485519
5.2423679e-06
0.001158766348
1.086758516e-05
0.001153408079
1.563557855e-05
0.001146902021
1.902799194e-05
0.001139614877
2.139770359e-05
0.001131912573
2.268515172e-05
0.001124063366
2.312348142e-05
0.001116305885
2.282252635e-05
0.001108810083
2.198732e-05
0.00110171533
2.075726541e-05
0.001095123767
1.926375189e-05
0.00108908657
1.763483402e-05
0.001083620587
1.595784296e-05
0.001078712362
1.431492205e-05
0.001074335761
1.274399479e-05
0.001070448749
1.129396506e-05
0.001067009536
9.967309033e-06
0.001063966676
8.796011488e-06
0.001061278145
7.753455238e-06
0.001058891369
6.872686987e-06
0.001056770965
6.10160062e-06
0.001054865006
5.48971363e-06
0.001053147293
4.957425422e-06
0.001051565098
4.583869301e-06
0.001050103736
4.253453408e-06
0.001048706634
4.08947023e-06
0.00104737363
3.926667996e-06
0.001046040492
3.946336155e-06
0.001044723833
3.922423334e-06
0.001043350966
4.09730739e-06
0.001041954502
4.187378913e-06
0.001040457469
4.480639705e-06
0.001038904595
4.658339277e-06
0.001037223589
5.020257504e-06
0.001035465393
5.249782936e-06
0.001033574061
5.616343047e-06
0.001031601817
5.845403821e-06
0.001029517562
6.145196328e-06
0.001027372532
6.308766305e-06
0.00102516032
6.478557343e-06
0.001022929008
6.520486973e-06
0.001020689859
6.524060656e-06
0.001018482909
6.420318451e-06
0.001016326526
6.261773407e-06
0.001014249584
6.024655437e-06
0.001012268703
5.739492332e-06
0.001010401573
5.405777287e-06
0.001008658568
5.042608052e-06
0.001007047652
4.657782747e-06
0.001005572061
4.264196751e-06
0.001004232112
3.870391238e-06
0.001003025163
3.484839305e-06
0.001001946312
3.113882362e-06
0.001000988892
2.762523968e-06
0.001000145087
2.434137753e-06
0.0009994062622
2.130920032e-06
0.0009987633742
1.853958781e-06
0.0009982072732
1.603391911e-06
0.0009977291075
1.378595604e-06
0.0009973202571
1.178504808e-06
0.0009969727917
1.001627672e-06
0.0009966789923
8.463558905e-07
0.0009964323424
7.10768981e-07
0.0009962261023
5.930828243e-07
0.0009960555256
4.913881396e-07
0.0009959145382
4.039566445e-07
0.0009958002785
3.29039314e-07
0.0009957071732
2.655565588e-07
0.0009956335807
2.107710872e-07
0.0009955755269
1.662206945e-07
0.0009955303016
1.263992123e-07
0.000995497862
9.525897795e-08
0.0009954726666
6.824844766e-08
0.000995457608
4.508390327e-08
0.0009954485902
2.798064008e-08
0.0009954441105
1.086560154e-08
0.0009954459455
-2.116238482e-10
0.0009954506226
-9.993860844e-09
0.0009954567123
-1.629006259e-08
0.0009954659599
-2.218804131e-08
0.0009954786116
-2.777279634e-08
0.000995484064
-2.653933169e-08
0.0009954844981
-2.468058732e-08
0.0009954918145
-2.858098088e-08
0.0009955071718
-3.354965701e-08
0.0009955252748
-4.198000623e-08
0.0009955414711
-4.676624291e-08
0.0009955593676
-5.044583744e-08
0.0009955774418
-5.112322443e-08
0.0009955934704
-4.31088977e-08
0.0009956047286
-3.253544822e-08
0.0009956082744
-2.308083169e-08
0.0009956071604
-1.832861089e-08
0.0009956063085
-1.742252865e-08
0.0009956080653
-1.786456923e-08
0.0009956115749
-1.734788453e-08
0.000995616265
-1.654277136e-08
0.0009956209127
-1.606410598e-08
0.0009956264008
-1.497225829e-08
0.0009956312964
-1.285126599e-08
0.0009956340377
-1.084248983e-08
0.0009956394279
-1.18931614e-08
0.0009956496401
-1.603229342e-08
0.0009956595013
-1.494970257e-08
0.0009956680345
-1.226294982e-08
0.000995675616
-1.330759593e-08
0.0009956822032
-1.495842856e-08
0.0009956888329
-1.545239376e-08
0.0009956944934
-1.477282422e-08
0.0009956998269
-1.342333224e-08
0.0009956986682
-8.511800692e-09
0.0009956932453
-5.67962759e-09
0.0009956901454
-7.155281631e-09
0.0009956873908
-8.241884974e-09
0.0009956835988
-7.512385738e-09
0.0009956819642
-8.729969994e-09
0.0009956825241
-7.903868815e-09
0.0009956852936
-6.614232277e-09
0.0009956899064
-4.604255638e-09
0.0009956941993
-1.603928928e-09
0.0009956912679
3.250133758e-09
0.000995685195
4.622327233e-09
0.0009956830773
1.608298593e-09
0.0009956782433
2.663615264e-09
0.0009956728616
2.726000155e-09
0.0009956696111
1.631627518e-09
0.0009956698538
1.785433829e-09
0.000995670019
6.795923873e-09
0.000995671309
8.843587247e-09
0.0009956678457
1.149292401e-08
0.0009956615365
1.371227908e-08
0.0009956569475
1.06965007e-08
0.0009956496941
1.144484584e-08
0.0009956423924
1.2622327e-08
0.0009956366881
1.148411456e-08
0.0009956342157
7.310390236e-09
0.0009956282815
1.15570968e-08
0.0009956193347
1.500934969e-08
0.0009956141558
1.199531763e-08
0.0009956080275
1.560801659e-08
0.0009956024618
2.184003928e-08
0.0009956014448
2.056304489e-08
0.0009955934932
2.18556224e-08
0.0009955806965
2.207185548e-08
0.0009955721215
2.435440872e-08
0.0009955676402
2.799846908e-08
0.0009955640172
3.027958604e-08
0.0009955586095
3.292467684e-08
0.0009955513503
3.490761703e-08
0.000995542356
3.665966409e-08
0.0009955319579
3.875182553e-08
0.0009955206439
4.134766822e-08
0.0009955085652
4.441486728e-08
0.0009954953861
4.795127367e-08
0.0009954806731
5.191276684e-08
0.0009954641538
5.625309905e-08
0.0009954457045
6.095781462e-08
0.0009954252531
6.603781783e-08
0.0009954027222
7.151560769e-08
0.0009953780215
7.741254973e-08
0.0009953510494
8.375357312e-08
0.0009953216894
9.057054487e-08
0.000995289806
9.790236341e-08
0.0009952552425
1.057918044e-07
0.0009952178206
1.142870119e-07
0.0009951773397
1.234400394e-07
0.0009951335762
1.333079923e-07
0.0009950862841
1.439507841e-07
0.000995035194
1.55432472e-07
0.0009949800125
1.678215934e-07
0.0009949204209
1.811915851e-07
0.0009948560737
1.956212938e-07
0.0009947865954
2.111976734e-07
0.0009947115821
2.280097918e-07
0.0009946305924
2.461616009e-07
0.0009945431558
2.657531241e-07
0.0009944487543
2.869102995e-07
0.0009943468413
3.097438164e-07
0.0009942368113
3.344040393e-07
0.0009941180205
3.610256365e-07
0.0009939897799
3.897611319e-07
0.0009938513088
4.208140581e-07
0.0009937018357
4.543002509e-07
0.0009935404385
4.905036308e-07
0.0009933661808
5.295790262e-07
0.0009931780677
5.717475828e-07
0.0009929749327
6.173432043e-07
0.0009927556034
6.665571786e-07
0.0009925188173
7.196760374e-07
0.0009922631262
7.771107227e-07
0.0009919870147
8.391268007e-07
0.000991688859
9.061495972e-07
0.0009913669452
9.78432307e-07
0.0009910192569
1.056769638e-06
0.0009906438204
1.141091098e-06
0.0009902381641
1.23285038e-06
0.0009898002647
1.330946698e-06
0.0009893268936
1.438750003e-06
0.0009888161933
1.552463497e-06
0.000988263502
1.680029985e-06
0.0009876678933
1.810924715e-06
0.0009870219764
1.96356651e-06
0.0009863273731
2.112382164e-06
0.0009855715731
2.297713174e-06
0.0009847616687
2.463999209e-06
0.0009838759647
2.692503609e-06
0.000982931529
2.875079553e-06
0.0009818924552
3.159025856e-06
0.0009807891291
3.359417796e-06
0.0009795711406
3.708461949e-06
0.000978278064
3.931575806e-06
0.0009768462102
4.369672583e-06
0.0009753384933
4.589493342e-06
0.0009736405435
5.184351112e-06
0.0009718792098
5.360893324e-06
0.0009698622993
6.175810966e-06
0.0009677888793
6.305766146e-06
0.0009653897318
7.345607283e-06
0.0009629196245
7.54276028e-06
0.0009600645382
8.718983201e-06
0.0009570742878
9.112227728e-06
0.0009536396187
1.053031361e-05
0.0009500126272
1.099039765e-05
0.0009457696495
1.297955661e-05
0.000941232887
1.363539608e-05
0.0009359757043
1.593294627e-05
1.838295761e-05
0.0009947802159
8.691348767e-05
0.000989681731
7.226991478e-05
0.0009839012736
5.065924253e-05
0.0009803464655
3.622524047e-05
0.0009793152837
2.787754247e-05
0.0009792519639
2.310466451e-05
0.0009783381773
1.342964339e-05
0.0009777225344
-8.370272149e-06
0.0009827177466
-4.309789279e-05
0.0009926874546
-6.85159402e-05
0.00100837355
-8.976813971e-05
0.001026907458
-9.649086382e-05
0.001047797105
-9.978578512e-05
0.001068841228
-9.451125405e-05
0.00108969957
-8.929284507e-05
0.00110895432
-7.935616743e-05
0.001126519888
-7.072936741e-05
0.001141274518
-5.861691788e-05
0.001153428935
-4.814243314e-05
0.001162119312
-3.504572941e-05
0.001167826914
-2.388763354e-05
0.001170120346
-1.160370214e-05
0.001169787537
-1.541265687e-06
0.001166839798
8.19010762e-06
0.001162003451
1.570393214e-05
0.001155589842
2.2049188e-05
0.00114816277
2.645506462e-05
0.001140083302
2.947717178e-05
0.001131744286
3.102416758e-05
0.001123419457
3.144831126e-05
0.001115333297
3.090868627e-05
0.001107651291
2.966932678e-05
0.001100473806
2.793475e-05
0.001093851578
2.588597985e-05
0.001087812095
2.367431771e-05
0.001082364714
2.14052243e-05
0.001077493435
1.918620054e-05
0.001073172151
1.706527888e-05
0.001069357624
1.510849268e-05
0.001066006614
1.331831878e-05
0.001063064472
1.173815349e-05
0.00106048527
1.033265688e-05
0.001058211998
9.145958779e-06
0.001056205205
8.108393609e-06
0.001054410112
7.284806528e-06
0.001052797461
6.570077093e-06
0.00105131438
6.066949819e-06
0.001049943827
5.624006348e-06
0.001048630455
5.402841992e-06
0.001047372704
5.184418517e-06
0.001046107293
5.211747182e-06
0.001044850544
5.179171188e-06
0.001043527866
5.419985781e-06
0.001042175252
5.539992193e-06
0.001040708453
5.947438526e-06
0.001039179195
6.187596339e-06
0.001037503754
6.695698951e-06
0.001035742825
7.010711236e-06
0.001033828672
7.530495488e-06
0.001031824184
7.849891607e-06
0.001029689507
8.279872922e-06
0.001027488001
8.510271799e-06
0.001025208937
8.757620834e-06
0.00102291228
8.817143614e-06
0.001020607347
8.828993851e-06
0.001018342094
8.685570825e-06
0.001016133839
8.470027996e-06
0.00101401495
8.143544112e-06
0.001012001193
7.753248624e-06
0.001010110852
7.296117931e-06
0.001008353412
6.800047725e-06
0.001006736306
6.274888327e-06
0.001005261775
5.738727926e-06
0.001003929219
5.202946189e-06
0.001002734762
4.679296573e-06
0.001001672415
4.176229147e-06
0.001000734391
3.700547367e-06
0.0009999117079
3.256820877e-06
0.0009991947659
2.847861959e-06
0.0009985737471
2.474977415e-06
0.0009980389662
2.138172732e-06
0.0009975809583
1.836603521e-06
0.0009971909162
1.568546898e-06
0.0009968604896
1.332054395e-06
0.0009965823289
1.124516648e-06
0.00099634937
9.437280719e-07
0.0009961558036
7.866493876e-07
0.0009959957339
6.514580457e-07
0.000995864854
5.348368734e-07
0.0009957581852
4.357084126e-07
0.0009956730415
3.507007071e-07
0.000995604616
2.791970382e-07
0.0009955523519
2.18485251e-07
0.0009955109332
1.678184669e-07
0.0009954811521
1.250407709e-07
0.0009954589245
9.047670813e-08
0.0009954436687
6.034040528e-08
0.0009954335751
3.807507448e-08
0.0009954273701
1.707137344e-08
0.0009954246933
2.466095056e-09
0.0009954231588
-8.458358822e-09
0.0009954287045
-2.183475669e-08
0.0009954350194
-2.850188231e-08
0.0009954418276
-3.457991036e-08
0.000995453403
-3.811350974e-08
0.0009954704325
-4.170891308e-08
0.0009954833707
-4.151784354e-08
0.0009954936131
-4.379072194e-08
0.0009955016213
-4.998675987e-08
0.0009955092635
-5.440697006e-08
0.0009955197599
-6.094068329e-08
0.0009955282859
-5.964756573e-08
0.0009955369406
-5.176192801e-08
0.0009955473145
-4.290765721e-08
0.0009955565316
-3.229612376e-08
0.0009955658841
-2.767926487e-08
0.0009955747266
-2.626307907e-08
0.0009955834494
-2.658543751e-08
0.0009955928905
-2.678690657e-08
0.0009956016125
-2.526274455e-08
0.0009956080071
-2.245652292e-08
0.0009956113115
-1.827455144e-08
0.0009956145073
-1.604477267e-08
0.0009956233263
-1.965928439e-08
0.0009956344104
-2.297488238e-08
0.0009956415175
-2.313712747e-08
0.0009956463831
-1.981291623e-08
0.0009956493613
-1.523879604e-08
0.0009956534515
-1.739539911e-08
0.0009956565318
-1.803614913e-08
0.0009956590952
-1.801323856e-08
0.0009956643208
-1.999591466e-08
0.0009956677399
-1.683977979e-08
0.0009956727255
-1.349482141e-08
0.0009956776692
-1.062072516e-08
0.0009956776563
-7.139620119e-09
0.000995684441
-1.50238402e-08
0.0009956946491
-1.771784891e-08
0.0009956964636
-1.054174294e-08
0.0009956970502
-8.487585038e-09
0.0009957002167
-9.777785572e-09
0.0009957044923
-8.877049378e-09
0.0009957055635
-2.672233058e-09
0.0009957066075
2.209057275e-09
0.0009957099518
1.280882923e-09
0.0009957115149
4.807026052e-11
0.0009957128224
1.358845811e-09
0.000995711707
3.844172979e-09
0.0009957069462
6.395286339e-09
0.0009956981488
1.058573352e-08
0.0009956951006
9.847007168e-09
0.0009956947144
9.23269754e-09
0.0009956955824
1.062783156e-08
0.0009957009895
8.308137945e-09
0.0009957015539
1.013503783e-08
0.0009956992103
1.37914178e-08
0.0009956999866
1.184900954e-08
0.0009957001411
1.133245956e-08
0.0009956875833
1.987104589e-08
0.0009956821053
1.703791322e-08
0.0009956844026
1.271483817e-08
0.0009956771848
1.921596175e-08
0.0009956749386
1.785706483e-08
0.0009956770604
1.972107456e-08
0.0009956731532
2.447305492e-08
0.0009956673775
2.763417324e-08
0.000995659592
2.986018572e-08