/*--------------------------------*- C++ -*----------------------------------*\
| =========                 |                                                 |
| \\      /  F ield         | OpenFOAM: The Open Source CFD Toolbox           |
|  \\    /   O peration     | Version:  v1806                                 |
|   \\  /    A nd           | Web:      www.OpenFOAM.com                      |
|    \\/     M anipulation  |                                                 |
\*---------------------------------------------------------------------------*/
FoamFile
{
    version     2.0;
    format      ascii;
    class       volVectorField;
    location    "0.1";
    object      U;
}
// * * * * * * * * * * * * * * * * * * * * * * * * * * * * * * * * * * * * * //

dimensions      [0 1 -1 0 0 0 0];


internalField   nonuniform List<vector> 
12474
(
(0.9894638566 0.06407832066 0)
(0.9069753023 0.04612896961 0)
(0.8914571373 0.02999437553 0)
(0.8660341375 0.02713035642 0)
(0.8496752231 0.02419677669 0)
(0.8319847493 0.01482226932 0)
(0.8254600854 0.00373446459 0)
(0.8294122188 -0.00513310092 0)
(0.8460147712 -0.01230497006 0)
(0.8735029853 -0.01630743556 0)
(0.9056383912 -0.01709376878 0)
(0.9386616343 -0.01547984274 0)
(0.9701713383 -0.01341661846 0)
(0.9986427967 -0.01073130986 0)
(1.0241098 -0.008781919385 0)
(1.046180084 -0.006335393668 0)
(1.065135839 -0.004836349442 0)
(1.081131613 -0.00268658962 0)
(1.093792671 -0.001337283481 0)
(1.103993413 0.0007195682422 0)
(1.110364145 0.002198318394 0)
(1.114883082 0.003568982482 0)
(1.115874179 0.005365426181 0)
(1.114767732 0.006489359103 0)
(1.111651452 0.007403770245 0)
(1.106839029 0.008262518001 0)
(1.100716988 0.008845507753 0)
(1.093699373 0.009237387805 0)
(1.086046732 0.009386998885 0)
(1.078182879 0.009319981119 0)
(1.070355189 0.009082071192 0)
(1.062821302 0.008742985329 0)
(1.055713747 0.008366759164 0)
(1.04914088 0.007994552416 0)
(1.043143297 0.007648384965 0)
(1.037743264 0.007337242836 0)
(1.032924352 0.007066767297 0)
(1.028666852 0.006834977396 0)
(1.024919165 0.006642808635 0)
(1.021645412 0.006484106009 0)
(1.018775035 0.006359442573 0)
(1.016275423 0.006260209194 0)
(1.01406818 0.006189058685 0)
(1.012134797 0.006135223258 0)
(1.010393641 0.00610495275 0)
(1.008843562 0.006084383069 0)
(1.007401307 0.006084615422 0)
(1.006080433 0.006087448349 0)
(1.004799239 0.006110415211 0)
(1.003578272 0.006129345294 0)
(1.002345107 0.006169253188 0)
(1.001115573 0.006198992472 0)
(0.9998377882 0.00625082969 0)
(0.9985113553 0.006287104442 0)
(0.9971151115 0.006345321059 0)
(0.9956266079 0.006383947944 0)
(0.9940595975 0.006441631952 0)
(0.9923731983 0.006477334422 0)
(0.9906117301 0.006525989449 0)
(0.9887284915 0.006552018843 0)
(0.9867864958 0.006582966962 0)
(0.9847484468 0.00659224286 0)
(0.9826817631 0.0065992089 0)
(0.9805672779 0.006587401198 0)
(0.9784652018 0.006569421998 0)
(0.976373421 0.006537593593 0)
(0.9743377671 0.006499696958 0)
(0.9723658857 0.006453712793 0)
(0.9704875768 0.006404392738 0)
(0.968712029 0.00635221257 0)
(0.9670551249 0.006300087566 0)
(0.9655223145 0.00624897933 0)
(0.9641188522 0.006200523609 0)
(0.9628447614 0.006155477993 0)
(0.9616980841 0.00611445437 0)
(0.9606740685 0.006077802593 0)
(0.9597664822 0.006045603516 0)
(0.9589677025 0.006017688985 0)
(0.9582693295 0.005993872879 0)
(0.9576626149 0.005973792263 0)
(0.9571388115 0.0059571379 0)
(0.9566892198 0.005943320918 0)
(0.9563056845 0.005932205922 0)
(0.9559802577 0.00592303651 0)
(0.9557060435 0.005916095434 0)
(0.9554762038 0.005910195305 0)
(0.9552850725 0.005906229982 0)
(0.9551273672 0.005902478936 0)
(0.9549976395 0.005900449611 0)
(0.9548938004 0.00589813634 0)
(0.9548079605 0.005897347003 0)
(0.9547440058 0.005895785377 0)
(0.9546892828 0.005896044025 0)
(0.9546529236 0.005894841521 0)
(0.9546221727 0.005894939084 0)
(0.9546023759 0.005895129056 0)
(0.9545903695 0.005894573108 0)
(0.9545810053 0.005892133971 0)
(0.9545815108 0.005890649437 0)
(0.9545863363 0.005888247282 0)
(0.9545899375 0.005884565617 0)
(0.9545929681 0.005880922502 0)
(0.9546003352 0.005875017726 0)
(0.9546090854 0.00586993661 0)
(0.9546186074 0.005865612567 0)
(0.9546276909 0.005857656257 0)
(0.9546419645 0.005847449324 0)
(0.9546519014 0.005831288424 0)
(0.9546674674 0.005813256531 0)
(0.9546874466 0.005804039661 0)
(0.9547126674 0.005799048049 0)
(0.9547356916 0.00580060439 0)
(0.9547534567 0.005805202023 0)
(0.9547626778 0.005806404024 0)
(0.9547726543 0.005809067686 0)
(0.9547823504 0.005811546275 0)
(0.9547919026 0.005809789268 0)
(0.9548013002 0.005803953439 0)
(0.9548112411 0.005803638601 0)
(0.9548174057 0.005805394113 0)
(0.954823586 0.005805815819 0)
(0.9548281534 0.005805454048 0)
(0.9548328459 0.005803271765 0)
(0.9548344155 0.005800667137 0)
(0.9548342229 0.005796130838 0)
(0.9548321835 0.005788075329 0)
(0.9548334401 0.005782061547 0)
(0.9548340814 0.005778151496 0)
(0.9548344774 0.005770082532 0)
(0.9548395689 0.005757461647 0)
(0.9548498022 0.005753512167 0)
(0.9548540556 0.005753456079 0)
(0.9548584869 0.005751869753 0)
(0.9548639689 0.005753739214 0)
(0.9548718849 0.005755665827 0)
(0.9548778345 0.005757496999 0)
(0.9548845396 0.005756577856 0)
(0.9548913059 0.005756162262 0)
(0.9548943148 0.005755509874 0)
(0.9548976442 0.005757599767 0)
(0.9548987686 0.005762210511 0)
(0.9548953957 0.005766758181 0)
(0.9548877587 0.005765850168 0)
(0.9548815183 0.005755828817 0)
(0.9548835679 0.005746127098 0)
(0.9548936033 0.005744908028 0)
(0.9548977544 0.00575187222 0)
(0.9548959038 0.005756671218 0)
(0.9548972253 0.005758681695 0)
(0.9549022418 0.005763129585 0)
(0.9549044585 0.005766612934 0)
(0.9549041811 0.005767014733 0)
(0.9548952014 0.005769243421 0)
(0.9548815644 0.005769493666 0)
(0.9548836511 0.005767891231 0)
(0.9548872908 0.005773165105 0)
(0.9548817821 0.005781036134 0)
(0.9548703615 0.005786086406 0)
(0.9548685464 0.005787387296 0)
(0.9548678795 0.005791989655 0)
(0.9548716187 0.005793815049 0)
(0.9548721087 0.005797862404 0)
(0.954871021 0.005806635574 0)
(0.9548563678 0.005828908397 0)
(0.9548243303 0.005831633164 0)
(0.9548121935 0.00582493407 0)
(0.954815849 0.005826203588 0)
(0.9548215766 0.005838239361 0)
(0.9548125857 0.00585594313 0)
(0.9547966646 0.005868864051 0)
(0.9547780527 0.005878406409 0)
(0.9547596996 0.005884765963 0)
(0.9547422539 0.0058888035 0)
(0.9547258755 0.005891441567 0)
(0.9547099421 0.005893621945 0)
(0.9546937313 0.005895980099 0)
(0.9546768362 0.005898708336 0)
(0.9546590927 0.005901662747 0)
(0.954640337 0.005904584948 0)
(0.9546203539 0.0059072846 0)
(0.9545989285 0.005909677261 0)
(0.9545758647 0.005911761931 0)
(0.9545509893 0.005913577439 0)
(0.9545241321 0.005915175591 0)
(0.9544951217 0.00591660734 0)
(0.9544637787 0.005917918619 0)
(0.9544299154 0.005919150792 0)
(0.9543933326 0.005920338878 0)
(0.9543538173 0.005921514775 0)
(0.9543111402 0.00592270334 0)
(0.9542650529 0.005923928522 0)
(0.9542152876 0.005925207869 0)
(0.9541615536 0.005926559376 0)
(0.9541035378 0.005927996956 0)
(0.9540409003 0.005929534177 0)
(0.9539732754 0.005931184307 0)
(0.953900266 0.0059329585 0)
(0.9538214448 0.005934870123 0)
(0.9537363506 0.005936931387 0)
(0.9536444794 0.005939152327 0)
(0.953545304 0.005941557997 0)
(0.9534382188 0.005944134281 0)
(0.9533226325 0.005946955414 0)
(0.9531978161 0.00594993578 0)
(0.9530630852 0.005953248056 0)
(0.952917622 0.005956714129 0)
(0.9527605477 0.00596055936 0)
(0.9525910109 0.005964654154 0)
(0.9524079286 0.005969072415 0)
(0.9522102427 0.005973892335 0)
(0.951996881 0.005979062693 0)
(0.9517663837 0.005984637368 0)
(0.9515176625 0.005990692943 0)
(0.9512488033 0.005997238627 0)
(0.9509590784 0.00600428905 0)
(0.950645146 0.006011894592 0)
(0.9503079181 0.006020156238 0)
(0.9499406498 0.006029091255 0)
(0.949549187 0.00603877973 0)
(0.9491179119 0.006049163976 0)
(0.948665655 0.006060485379 0)
(0.9481556874 0.006072527151 0)
(0.9476376593 0.006085893558 0)
(0.9470282957 0.006099870297 0)
(0.9464429822 0.006115819374 0)
(0.9457049126 0.00613194213 0)
(0.9450556499 0.006151127159 0)
(0.9441494782 0.006169647102 0)
(0.9434433048 0.006192782595 0)
(0.9423222342 0.00621410643 0)
(0.9415623418 0.006242131613 0)
(0.9401831336 0.00626595339 0)
(0.9393520822 0.006302182902 0)
(0.9376907972 0.006324963268 0)
(0.9367387226 0.006375011375 0)
(0.9347812878 0.006397753465 0)
(0.9336531391 0.00646421414 0)
(0.9313581464 0.006473430733 0)
(0.9300185203 0.006595440657 0)
(0.9273027208 0.006534068742 0)
(0.9257142108 0.006807885485 0)
(0.9224810048 0.006566982124 0)
(0.9205650931 0.007108049989 0)
(0.9166954088 0.00666965055 0)
(0.9143967782 0.007402686724 0)
(0.9095686837 0.007026228852 0)
(0.9070174432 0.007738756157 0)
(0.9004450902 0.007650662768 0)
(0.898288413 0.008497753502 0)
(0.8876583393 0.009241869366 0)
(1.000450731 0.05867768593 0)
(0.9703433738 0.04135008696 0)
(0.9641512653 0.01973955276 0)
(0.9514871562 0.01385416154 0)
(0.9490824049 0.01176318819 0)
(0.9429254516 0.009337425932 0)
(0.9344900318 -0.0003347406355 0)
(0.9287340735 -0.01512817222 0)
(0.9328073593 -0.03205735809 0)
(0.9455618668 -0.04257963597 0)
(0.9651846843 -0.04867823431 0)
(0.9894790551 -0.04860433786 0)
(1.01443484 -0.04701236034 0)
(1.039903094 -0.04279768807 0)
(1.062953048 -0.03910944589 0)
(1.084769189 -0.03431576783 0)
(1.103377114 -0.03037151595 0)
(1.119985413 -0.02563957495 0)
(1.133260823 -0.02167809492 0)
(1.144033702 -0.01701750932 0)
(1.151726844 -0.01313539377 0)
(1.156718691 -0.008852752339 0)
(1.158828208 -0.005238526729 0)
(1.158865815 -0.001989237989 0)
(1.156379354 0.0006123330513 0)
(1.152352065 0.002849118672 0)
(1.146824167 0.004460443513 0)
(1.140405304 0.005629492663 0)
(1.133303952 0.006305151938 0)
(1.125924579 0.006568815048 0)
(1.118456425 0.006465286706 0)
(1.111141814 0.006089516448 0)
(1.104113629 0.005500020279 0)
(1.097491569 0.004758161252 0)
(1.091335769 0.003928277475 0)
(1.085692827 0.003054717375 0)
(1.080566538 0.002182015368 0)
(1.07595789 0.001335893849 0)
(1.071831841 0.0005463876732 0)
(1.068170121 -0.0001798197842 0)
(1.064913185 -0.0008239257796 0)
(1.062041496 -0.001397312683 0)
(1.059480937 -0.001883058808 0)
(1.057221614 -0.0023078502 0)
(1.055180103 -0.002646945407 0)
(1.053361009 -0.002942013911 0)
(1.05167535 -0.003152204251 0)
(1.050141598 -0.00333803333 0)
(1.04867004 -0.003435646172 0)
(1.047285697 -0.003530379694 0)
(1.045907557 -0.003530121373 0)
(1.044554828 -0.003548703719 0)
(1.043168211 -0.003466406892 0)
(1.04174836 -0.003421891526 0)
(1.040269708 -0.003277356174 0)
(1.038707087 -0.003184244178 0)
(1.037073909 -0.003003392934 0)
(1.035322544 -0.002881417977 0)
(1.033501057 -0.002696558499 0)
(1.031553264 -0.0025733621 0)
(1.029548553 -0.002419986255 0)
(1.027440009 -0.002328559778 0)
(1.025302272 -0.002238276664 0)
(1.023108362 -0.002207598221 0)
(1.020924825 -0.002199913718 0)
(1.01874415 -0.002244735279 0)
(1.016616479 -0.002320940257 0)
(1.01454657 -0.002438133004 0)
(1.012566723 -0.002583481183 0)
(1.010685302 -0.002756010869 0)
(1.008919866 -0.002946954236 0)
(1.007276308 -0.003151350005 0)
(1.005761556 -0.003362642323 0)
(1.004376633 -0.003575865266 0)
(1.003121089 -0.003786061184 0)
(1.001991452 -0.003989693509 0)
(1.0009825 -0.004183800586 0)
(1.000087564 -0.004366118966 0)
(0.9992989673 -0.00453533197 0)
(0.9986084652 -0.004690703906 0)
(0.9980073881 -0.004832039648 0)
(0.9974873067 -0.004959240723 0)
(0.9970397408 -0.005073070485 0)
(0.9966569844 -0.005173827408 0)
(0.996331174 -0.00526317179 0)
(0.9960559274 -0.00534080985 0)
(0.9958240468 -0.005409594615 0)
(0.9956310555 -0.005467570092 0)
(0.995470002 -0.005519918224 0)
(0.9953386553 -0.005561736792 0)
(0.9952302395 -0.005601191539 0)
(0.9951435433 -0.005630977111 0)
(0.9950746399 -0.005659033435 0)
(0.9950182762 -0.005681931231 0)
(0.994979568 -0.005698944532 0)
(0.9949429044 -0.005717336769 0)
(0.9949257641 -0.005728050641 0)
(0.9949038751 -0.005737621869 0)
(0.9948963402 -0.005750720765 0)
(0.9948867632 -0.005752461196 0)
(0.994884957 -0.005752250796 0)
(0.9948892491 -0.005752578713 0)
(0.9948954973 -0.005749913764 0)
(0.9948995899 -0.005744372319 0)
(0.9949075906 -0.005739448438 0)
(0.9949223007 -0.005737932524 0)
(0.9949334887 -0.005729975771 0)
(0.9949401513 -0.005715368194 0)
(0.9949445334 -0.005709059521 0)
(0.9949526595 -0.005709527635 0)
(0.9949598949 -0.005706825321 0)
(0.9949703331 -0.005701586194 0)
(0.9949846847 -0.005692699593 0)
(0.9949975319 -0.005687277465 0)
(0.9950080494 -0.005690266071 0)
(0.9950172106 -0.005692893946 0)
(0.9950273138 -0.005691446697 0)
(0.9950350627 -0.005686749264 0)
(0.9950402307 -0.005683783759 0)
(0.9950463739 -0.005681882394 0)
(0.9950517438 -0.005680133851 0)
(0.995058843 -0.005677040964 0)
(0.99506094 -0.005670981307 0)
(0.9950688568 -0.005663294366 0)
(0.9950757317 -0.005654324076 0)
(0.9950838583 -0.005648053404 0)
(0.9950884309 -0.005644846168 0)
(0.99509171 -0.005640294489 0)
(0.9950956193 -0.005636656206 0)
(0.9950971979 -0.005633524169 0)
(0.9950972953 -0.005630620211 0)
(0.9951000797 -0.005626916694 0)
(0.9951064982 -0.005626902727 0)
(0.9951077198 -0.005628904492 0)
(0.9951112129 -0.005629879861 0)
(0.9951160278 -0.005633410418 0)
(0.9951196461 -0.005631786705 0)
(0.9951248134 -0.005627066991 0)
(0.9951318743 -0.005623861053 0)
(0.9951389594 -0.005624944617 0)
(0.9951434472 -0.005622712 0)
(0.9951479124 -0.005618015948 0)
(0.9951536629 -0.005615668307 0)
(0.9951580537 -0.005617677715 0)
(0.9951571762 -0.005623095684 0)
(0.9951472201 -0.005626107416 0)
(0.9951455498 -0.005624443656 0)
(0.9951491573 -0.005624719587 0)
(0.9951506098 -0.005629033091 0)
(0.9951470081 -0.005632577527 0)
(0.9951389085 -0.005630731842 0)
(0.9951292844 -0.00562145841 0)
(0.9951313242 -0.005619991114 0)
(0.9951348764 -0.005627349856 0)
(0.9951263163 -0.005637555608 0)
(0.9951184268 -0.005638793951 0)
(0.9951200088 -0.005636316574 0)
(0.9951238365 -0.005638983658 0)
(0.9951219516 -0.005645523747 0)
(0.9951167651 -0.005653198777 0)
(0.99510817 -0.005656416341 0)
(0.9950994471 -0.005659569444 0)
(0.9950947844 -0.005656407941 0)
(0.9950990485 -0.005653232231 0)
(0.9951060772 -0.005657896393 0)
(0.995103886 -0.005678175207 0)
(0.9950896087 -0.005698442148 0)
(0.9950740942 -0.005696083883 0)
(0.9950613709 -0.005690076986 0)
(0.9950518529 -0.005692221686 0)
(0.9950430177 -0.005699205116 0)
(0.9950336765 -0.005706209649 0)
(0.9950235573 -0.005711859506 0)
(0.9950121918 -0.005715637918 0)
(0.9949991685 -0.005717635384 0)
(0.9949842807 -0.005718709366 0)
(0.9949676169 -0.005719628221 0)
(0.9949493866 -0.005720488912 0)
(0.9949297311 -0.005720987256 0)
(0.9949086712 -0.005720874132 0)
(0.994886136 -0.005720077846 0)
(0.9948620013 -0.005718632072 0)
(0.9948361191 -0.005716593681 0)
(0.9948083235 -0.005714010514 0)
(0.9947784367 -0.005710918574 0)
(0.9947462686 -0.005707343838 0)
(0.9947116176 -0.00570330475 0)
(0.9946742702 -0.005698808791 0)
(0.9946339974 -0.005693856168 0)
(0.9945905561 -0.005688435485 0)
(0.9945436843 -0.005682531395 0)
(0.9944931024 -0.005676118791 0)
(0.9944385099 -0.005669169677 0)
(0.9943795828 -0.005661649045 0)
(0.9943159736 -0.005653516926 0)
(0.9942473074 -0.005644730021 0)
(0.9941731791 -0.00563523661 0)
(0.9940931547 -0.005624986739 0)
(0.9940067602 -0.00561391411 0)
(0.9939134963 -0.005601964062 0)
(0.9938127985 -0.005589057867 0)
(0.9937041039 -0.005575118061 0)
(0.9935867309 -0.005560094437 0)
(0.9934600447 -0.005543807419 0)
(0.993323246 -0.005526340594 0)
(0.9931755599 -0.005507320394 0)
(0.9930161387 -0.005486939204 0)
(0.9928439621 -0.005464856259 0)
(0.99265813 -0.005440956536 0)
(0.9924574527 -0.005415282318 0)
(0.9922407979 -0.005387475537 0)
(0.9920068073 -0.005357389523 0)
(0.9917543433 -0.005324980048 0)
(0.9914813758 -0.005290017164 0)
(0.9911872159 -0.005252137442 0)
(0.9908685155 -0.005211223029 0)
(0.9905262418 -0.00516700503 0)
(0.9901533847 -0.005119444216 0)
(0.9897560248 -0.005067768348 0)
(0.9893180509 -0.005012291471 0)
(0.9888591099 -0.004951508999 0)
(0.9883411004 -0.004886981078 0)
(0.9878158438 -0.004815242306 0)
(0.9871964409 -0.004740758219 0)
(0.9866038575 -0.004655365057 0)
(0.9858524548 -0.004570201432 0)
(0.9851972139 -0.004467199755 0)
(0.9842720761 -0.004371177351 0)
(0.9835637695 -0.004245020989 0)
(0.982414519 -0.004138574371 0)
(0.9816595569 -0.003982151708 0)
(0.9802401578 -0.003866079723 0)
(0.9794182362 -0.003669024773 0)
(0.9777150984 -0.003548708972 0)
(0.9767602804 -0.003290596703 0)
(0.9747709037 -0.00317526642 0)
(0.9736369487 -0.002834104806 0)
(0.9712954501 -0.002734931913 0)
(0.9699626887 -0.002287271454 0)
(0.9671791713 -0.002169383205 0)
(0.9656271105 -0.001693055239 0)
(0.9622952082 -0.001377757366 0)
(0.9604543556 -0.001029756626 0)
(0.9564982557 -0.0004410262893 0)
(0.9542822292 -2.743075938e-05 0)
(0.9494779029 0.0004943550098 0)
(0.9470086537 0.00139226651 0)
(0.9407611624 0.001769566252 0)
(0.9386647955 0.002912321338 0)
(0.9293970339 0.003967276119 0)
(1.000544157 0.08139026226 0)
(0.9833975398 0.06933339756 0)
(0.9774607428 0.04781767941 0)
(0.9656635614 0.03692085528 0)
(0.9630611184 0.03176486827 0)
(0.9576370836 0.02791138681 0)
(0.9541636476 0.01682021826 0)
(0.9500662126 -0.003819769946 0)
(0.9538170168 -0.03011963388 0)
(0.9641658632 -0.04858926595 0)
(0.9804717412 -0.06169735075 0)
(1.001627859 -0.06442222494 0)
(1.023945876 -0.06437513234 0)
(1.047669547 -0.05897537631 0)
(1.069642612 -0.05412218816 0)
(1.090985374 -0.04656919369 0)
(1.109444961 -0.04047854866 0)
(1.126202684 -0.03247481178 0)
(1.139508058 -0.02579821599 0)
(1.150526009 -0.01774113742 0)
(1.157883516 -0.01091013368 0)
(1.162768502 -0.00363342604 0)
(1.164423262 0.002694797441 0)
(1.164033425 0.008650360539 0)
(1.161023272 0.01338622727 0)
(1.156492376 0.0173838616 0)
(1.150375664 0.02024002963 0)
(1.143431695 0.02223692386 0)
(1.135828665 0.0233014968 0)
(1.128004073 0.02362106709 0)
(1.120138039 0.02331126251 0)
(1.112479324 0.02254693106 0)
(1.105146646 0.02148748419 0)
(1.098286405 0.02025876964 0)
(1.09196153 0.01894883863 0)
(1.086211515 0.01761851407 0)
(1.081027148 0.01632679878 0)
(1.076396564 0.01509880157 0)
(1.072271199 0.01397062075 0)
(1.06862532 0.01294112752 0)
(1.065389262 0.01203643194 0)
(1.062543855 0.01123365774 0)
(1.060007306 0.01056110977 0)
(1.057776373 0.009975805806 0)
(1.055759684 0.009519062044 0)
(1.053972711 0.009125036614 0)
(1.052315017 0.008857915607 0)
(1.050819251 0.008623583607 0)
(1.049380035 0.008520350297 0)
(1.048039281 0.008416816741 0)
(1.046698119 0.008454000771 0)
(1.045391146 0.008456960694 0)
(1.044044894 0.008610095419 0)
(1.042667467 0.008697651041 0)
(1.041228634 0.008936339616 0)
(1.039698265 0.009085856105 0)
(1.03809789 0.009370239973 0)
(1.036361741 0.009551639507 0)
(1.034557356 0.009831343671 0)
(1.032602558 0.01000312177 0)
(1.030591976 0.01022352437 0)
(1.028453341 0.01033676598 0)
(1.026285684 0.01045090161 0)
(1.024042886 0.01046589981 0)
(1.021811819 0.01045024976 0)
(1.019573216 0.01035322994 0)
(1.017391214 0.01021525608 0)
(1.015264798 0.01001928122 0)
(1.013233938 0.009788877482 0)
(1.01130475 0.009524033311 0)
(1.009498191 0.009239438916 0)
(1.007819228 0.008940801607 0)
(1.006275769 0.00863785395 0)
(1.004868112 0.008336845784 0)
(1.003595658 0.0080438395 0)
(1.002454192 0.007763481941 0)
(1.001437894 0.007499305513 0)
(1.000539342 0.007253521882 0)
(0.9997502879 0.007027591881 0)
(0.9990617018 0.006822148044 0)
(0.9984645497 0.00663708243 0)
(0.9979495135 0.006471631071 0)
(0.9975082786 0.006324920325 0)
(0.9971318157 0.006195607958 0)
(0.9968134262 0.006082605522 0)
(0.9965442012 0.005984127236 0)
(0.9963202173 0.005899074805 0)
(0.9961316908 0.005825594325 0)
(0.9959791523 0.005762822486 0)
(0.9958496914 0.005708734505 0)
(0.9957506902 0.00566394142 0)
(0.9956634955 0.005623550806 0)
(0.9956034993 0.005593822522 0)
(0.995547461 0.005563024956 0)
(0.9955129915 0.005543392965 0)
(0.9954826538 0.005522391593 0)
(0.9954625988 0.005506994905 0)
(0.9954525781 0.005494112194 0)
(0.9954443795 0.005481452967 0)
(0.9954438873 0.005473501409 0)
(0.9954475129 0.005465692687 0)
(0.995454066 0.005458978529 0)
(0.9954599851 0.005447735095 0)
(0.9954712927 0.005436448645 0)
(0.9954851214 0.005428859192 0)
(0.9954838139 0.005426047991 0)
(0.9954855067 0.005419959922 0)
(0.9954976197 0.005409652275 0)
(0.9955169934 0.005390484218 0)
(0.9955329495 0.005377667549 0)
(0.9955501277 0.005370738618 0)
(0.9955687599 0.005365745701 0)
(0.995586239 0.00537035733 0)
(0.9956009364 0.005377816427 0)
(0.9956081064 0.00538461493 0)
(0.9956083852 0.005387707521 0)
(0.9956060237 0.005389560807 0)
(0.99560664 0.005391304467 0)
(0.9956093883 0.005393556822 0)
(0.9956140978 0.005395033895 0)
(0.9956184701 0.00539315666 0)
(0.9956228212 0.005391290464 0)
(0.9956299895 0.005386620644 0)
(0.9956325723 0.005377470856 0)
(0.9956355179 0.005370987718 0)
(0.9956437155 0.005366451961 0)
(0.9956553243 0.005364252203 0)
(0.995663742 0.005362858445 0)
(0.9956722981 0.005355862554 0)
(0.9956787752 0.005348842973 0)
(0.9956855985 0.005347125634 0)
(0.995692493 0.00534605803 0)
(0.9956971865 0.005348875756 0)
(0.9957005745 0.005351866571 0)
(0.9956973885 0.005352082869 0)
(0.9956906952 0.005351119875 0)
(0.9956880627 0.005341839356 0)
(0.9956860366 0.005340825232 0)
(0.9956823325 0.005343882075 0)
(0.9956815931 0.005347044822 0)
(0.9956832136 0.005350812733 0)
(0.9956875392 0.0053539644 0)
(0.9956932753 0.005359138364 0)
(0.9956937549 0.005363409883 0)
(0.9956878576 0.005361894552 0)
(0.9956840169 0.005358362007 0)
(0.9956816149 0.005358377794 0)
(0.9956752035 0.005357839244 0)
(0.9956704399 0.005359878544 0)
(0.9956684981 0.005368618186 0)
(0.9956706515 0.005372012522 0)
(0.9956709713 0.00537620732 0)
(0.9956709094 0.005380102083 0)
(0.9956641061 0.0053818241 0)
(0.9956604119 0.005384295065 0)
(0.9956529729 0.005384680508 0)
(0.9956457204 0.005383383195 0)
(0.9956390595 0.005381968317 0)
(0.9956350779 0.005383176659 0)
(0.9956323186 0.005387443669 0)
(0.9956245316 0.005392711401 0)
(0.9956151205 0.005402181464 0)
(0.9956124949 0.005410113205 0)
(0.995603384 0.005423568816 0)
(0.9956023499 0.005434948315 0)
(0.9955999007 0.005441046516 0)
(0.995586924 0.005447072614 0)
(0.9955749958 0.005455239931 0)
(0.9955689594 0.005463655086 0)
(0.995566267 0.005471061265 0)
(0.9955617924 0.005478912346 0)
(0.9955554332 0.005485421681 0)
(0.9955472637 0.005490391921 0)
(0.9955374478 0.005494855749 0)
(0.9955264666 0.005499565701 0)
(0.9955148176 0.005504654412 0)
(0.9955023125 0.005509933065 0)
(0.9954884597 0.005515222506 0)
(0.995472888 0.005520448596 0)
(0.9954554217 0.00552562248 0)
(0.9954359895 0.005530785202 0)
(0.9954145189 0.005535991168 0)
(0.9953909273 0.005541300732 0)
(0.9953651173 0.005546777153 0)
(0.9953369826 0.005552480791 0)
(0.995306397 0.00555846952 0)
(0.9952732154 0.005564799722 0)
(0.9952372699 0.005571527477 0)
(0.9951983714 0.005578709963 0)
(0.995156308 0.005586401909 0)
(0.9951108443 0.005594661982 0)
(0.9950617239 0.005603545115 0)
(0.9950086639 0.005613112547 0)
(0.9949513609 0.00562342477 0)
(0.9948894806 0.005634545307 0)
(0.9948226667 0.005646544917 0)
(0.9947505238 0.00565949216 0)
(0.9946726404 0.005673470077 0)
(0.994588544 0.005688553217 0)
(0.9944977678 0.005704843565 0)
(0.9943997404 0.005722425279 0)
(0.9942939424 0.005741404147 0)
(0.99417968 0.005761919745 0)
(0.9940563614 0.005784008771 0)
(0.9939231982 0.005807974699 0)
(0.9937794197 0.005833695787 0)
(0.9936242519 0.005861626589 0)
(0.9934566244 0.005891709292 0)
(0.9932757395 0.005924149907 0)
(0.9930803917 0.005959315961 0)
(0.9928694832 0.005997216414 0)
(0.9926417074 0.006038098126 0)
(0.9923959584 0.006082362798 0)
(0.9921302405 0.006130177877 0)
(0.9918438848 0.006181808345 0)
(0.991533673 0.006237464873 0)
(0.9912004875 0.006297853402 0)
(0.9908375909 0.006362886402 0)
(0.9904507473 0.006433686957 0)
(0.990024503 0.006509280284 0)
(0.9895776688 0.006592459706 0)
(0.989073695 0.006679971696 0)
(0.988562198 0.006778563983 0)
(0.9879598897 0.006879206786 0)
(0.9873826257 0.006997516349 0)
(0.9866524216 0.007111681973 0)
(0.9860137653 0.007255805517 0)
(0.9851152553 0.007383118497 0)
(0.98442483 0.007561006059 0)
(0.9833083284 0.007701114115 0)
(0.9825743281 0.007921676434 0)
(0.9811926216 0.00807648079 0)
(0.9803993533 0.008346668727 0)
(0.9787361546 0.00852069106 0)
(0.9778193848 0.008859136802 0)
(0.9758787155 0.009030646106 0)
(0.974787683 0.009494948364 0)
(0.9725117451 0.009622855921 0)
(0.9712202128 0.01028666391 0)
(0.9685376494 0.01032417088 0)
(0.9670033227 0.01125941471 0)
(0.963811649 0.01121965726 0)
(0.9619991378 0.01242614696 0)
(0.9581462917 0.01239116818 0)
(0.9560047245 0.01389596972 0)
(0.9512489251 0.01394809405 0)
(0.9488594152 0.01580357871 0)
(0.9424831233 0.01617680035 0)
(0.9404527275 0.0182796913 0)
(0.9304957407 0.02031765694 0)
(1.00018295 0.084139172 0)
(0.9904651437 0.06761606441 0)
(0.988093378 0.04409878265 0)
(0.980349752 0.03017117401 0)
(0.9799601967 0.0232746691 0)
(0.9788449191 0.01906419387 0)
(0.9796747612 0.009082358553 0)
(0.9767899203 -0.0135379805 0)
(0.9788867625 -0.04557086959 0)
(0.9863530725 -0.06814225561 0)
(0.9992654514 -0.08622962671 0)
(1.017266665 -0.09129829783 0)
(1.036761726 -0.09325932059 0)
(1.05859294 -0.08779840063 0)
(1.079248339 -0.08260582998 0)
(1.099924178 -0.07346864886 0)
(1.118105768 -0.06569674188 0)
(1.134726668 -0.05505708983 0)
(1.147938703 -0.04598670569 0)
(1.158740279 -0.03472836894 0)
(1.165632361 -0.02518732208 0)
(1.169889781 -0.01467222045 0)
(1.170487638 -0.006087137118 0)
(1.169008463 0.002233762946 0)
(1.16478125 0.008775892138 0)
(1.159196257 0.01433552178 0)
(1.152051666 0.01827238238 0)
(1.144271367 0.02101608629 0)
(1.135931079 0.02252191213 0)
(1.12756332 0.02307277123 0)
(1.119291243 0.02277062958 0)
(1.111379525 0.02185434464 0)
(1.103927629 0.0204422204 0)
(1.097020625 0.01867212116 0)
(1.090681553 0.01671502905 0)
(1.084941659 0.01468593821 0)
(1.079784404 0.01268895238 0)
(1.075200968 0.01077380147 0)
(1.071138851 0.009002076192 0)
(1.067575263 0.007379610163 0)
(1.064432993 0.005943880848 0)
(1.06169578 0.0046644447 0)
(1.059269334 0.003578642162 0)
(1.057155745 0.002625233985 0)
(1.055248646 0.001861560454 0)
(1.053574034 0.001194289046 0)
(1.052014053 0.0007173462187 0)
(1.050618671 0.0002935714872 0)
(1.049260986 7.150541359e-05 0)
(1.048005705 -0.0001484293504 0)
(1.046730043 -0.0001438155782 0)
(1.045492622 -0.0001929693903 0)
(1.044196676 6.233624207e-06 0)
(1.042869855 0.0001003445521 0)
(1.04146679 0.000450863258 0)
(1.039963216 0.0006583246214 0)
(1.038380459 0.001100606865 0)
(1.036641321 0.001379861307 0)
(1.034830535 0.00183593386 0)
(1.032840955 0.00212361729 0)
(1.03079611 0.002504526011 0)
(1.028595713 0.002718860465 0)
(1.026372277 0.002944480535 0)
(1.024055962 0.003012253649 0)
(1.021763674 0.003033396127 0)
(1.019458056 0.002920335821 0)
(1.017223663 0.002738264349 0)
(1.015047854 0.002456654635 0)
(1.012981007 0.002113418296 0)
(1.011022961 0.001707615066 0)
(1.009198223 0.001262975296 0)
(1.007508912 0.0007894129176 0)
(1.00596322 0.0003030399212 0)
(1.004560033 -0.0001853484096 0)
(1.003297848 -0.0006649093038 0)
(1.00217114 -0.001127675131 0)
(1.001173087 -0.001567239932 0)
(1.000295103 -0.001979126155 0)
(0.9995277263 -0.002360459035 0)
(0.9988612463 -0.002709717139 0)
(0.9982857214 -0.003026556051 0)
(0.997791722 -0.003311440051 0)
(0.9973697481 -0.003565662494 0)
(0.9970116753 -0.003790808761 0)
(0.9967089406 -0.003989060554 0)
(0.9964553836 -0.004162389354 0)
(0.9962430706 -0.004313340701 0)
(0.9960682664 -0.004443786422 0)
(0.995922985 -0.00455639475 0)
(0.995806499 -0.004652580446 0)
(0.9957097214 -0.004735121496 0)
(0.9956361579 -0.004804666091 0)
(0.995572999 -0.004864213611 0)
(0.9955314879 -0.004913371225 0)
(0.9954903879 -0.004955963188 0)
(0.9954716769 -0.004989181248 0)
(0.9954462311 -0.005019868899 0)
(0.9954409128 -0.005041043094 0)
(0.9954262981 -0.005062046691 0)
(0.9954282124 -0.005076071717 0)
(0.9954216168 -0.005087336942 0)
(0.9954244927 -0.005095863787 0)
(0.9954323017 -0.005100127252 0)
(0.9954380793 -0.00509995356 0)
(0.9954455744 -0.005101456181 0)
(0.9954612162 -0.005100052784 0)
(0.9954792957 -0.00509667884 0)
(0.9954883629 -0.005094371121 0)
(0.9954980549 -0.005091694393 0)
(0.9955046584 -0.005091078345 0)
(0.9955148741 -0.005091090131 0)
(0.9955241319 -0.00508999792 0)
(0.9955322427 -0.005080264747 0)
(0.9955422265 -0.005065931344 0)
(0.9955518629 -0.005055024986 0)
(0.9955614294 -0.00504859582 0)
(0.9955703708 -0.005048983556 0)
(0.9955790707 -0.005053416567 0)
(0.995587687 -0.005055319465 0)
(0.9955979584 -0.005054354035 0)
(0.9956053466 -0.005050052619 0)
(0.9956107057 -0.00504293774 0)
(0.9956120862 -0.005031342077 0)
(0.995616845 -0.005015984797 0)
(0.9956297363 -0.005010278872 0)
(0.9956389274 -0.005013417667 0)
(0.9956448573 -0.005014924683 0)
(0.9956481912 -0.005013204249 0)
(0.9956500545 -0.005004308018 0)
(0.9956556878 -0.005002167813 0)
(0.9956577683 -0.005004811473 0)
(0.9956610893 -0.0050014434 0)
(0.9956660338 -0.005002887061 0)
(0.9956709292 -0.005001076835 0)
(0.9956751759 -0.004996110335 0)
(0.9956777537 -0.004992401635 0)
(0.9956806452 -0.004988363488 0)
(0.9956886281 -0.004992057453 0)
(0.9956968152 -0.00499518021 0)
(0.9956970635 -0.004992609265 0)
(0.9956985324 -0.004990710605 0)
(0.9957020257 -0.004989937791 0)
(0.9957053049 -0.004992235845 0)
(0.9957053529 -0.004991816228 0)
(0.9957091816 -0.00498764028 0)
(0.9957118912 -0.004987962347 0)
(0.9957112242 -0.004989575596 0)
(0.9957128145 -0.004990263993 0)
(0.9957110212 -0.004987396808 0)
(0.9957029387 -0.00498267114 0)
(0.9956940749 -0.00498330263 0)
(0.9956948797 -0.004988064826 0)
(0.9956946267 -0.004990997722 0)
(0.9956981987 -0.004986455612 0)
(0.9957015735 -0.004985724364 0)
(0.9957006351 -0.004986303586 0)
(0.9957001706 -0.004986042083 0)
(0.9957009499 -0.004985352137 0)
(0.9956968895 -0.004987200047 0)
(0.9956799505 -0.00498844697 0)
(0.995683808 -0.004991853499 0)
(0.9956829897 -0.005001729494 0)
(0.9956733004 -0.005007824724 0)
(0.9956768911 -0.005011326648 0)
(0.9956761002 -0.005015368213 0)
(0.9956704295 -0.005018051592 0)