/*--------------------------------*- C++ -*----------------------------------*\
| =========                 |                                                 |
| \\      /  F ield         | OpenFOAM: The Open Source CFD Toolbox           |
|  \\    /   O peration     | Version:  v1806                                 |
|   \\  /    A nd           | Web:      www.OpenFOAM.com                      |
|    \\/     M anipulation  |                                                 |
\*---------------------------------------------------------------------------*/
FoamFile
{
    version     2.0;
    format      ascii;
    class       surfaceVectorField;
    location    "0.1";
    object      Uf;
}
// * * * * * * * * * * * * * * * * * * * * * * * * * * * * * * * * * * * * * //

dimensions      [0 1 -1 0 0 0 0];


internalField   nonuniform List<vector> 
24493
(
(0.9434638134 0.05510364514 0)
(0.994957294 0.05653618655 0)
(0.9017003102 0.03806167257 0)
(0.9386593381 0.04176350386 0)
(0.8780356313 0.02856236598 0)
(0.9278042013 0.02366467941 0)
(0.8582767314 0.02566356655 0)
(0.9087606468 0.01975890039 0)
(0.8407179817 0.019509523 0)
(0.899378814 0.01755875021 0)
(0.8288772324 0.009278366953 0)
(0.8874551004 0.01184074973 0)
(0.8274013517 -0.0006993181647 0)
(0.8799750586 0.001475881198 0)
(0.837637506 -0.008719035492 0)
(0.8790731462 -0.01023615377 0)
(0.8598961405 -0.01430620281 0)
(0.8894110652 -0.02225863404 0)
(0.8893943934 -0.01670060217 0)
(0.909532426 -0.02949825249 0)
(0.9222828313 -0.01628680576 0)
(0.9354115377 -0.03288843739 0)
(0.9543195524 -0.0144482306 0)
(0.9640703447 -0.03203672059 0)
(0.984529262 -0.01207396416 0)
(0.992303089 -0.03020970924 0)
(1.011298419 -0.009756614623 0)
(1.019272945 -0.02676915689 0)
(1.035252579 -0.007558656526 0)
(1.043531424 -0.02395415952 0)
(1.0555965 -0.005585871555 0)
(1.065474636 -0.02034392054 0)
(1.073220743 -0.003761469531 0)
(1.084256477 -0.01762424257 0)
(1.087414109 -0.00201193655 0)
(1.100558513 -0.01419336549 0)
(1.098954519 -0.0003088576193 0)
(1.113526747 -0.01154040972 0)
(1.107142333 0.001458943318 0)
(1.124013557 -0.008187813455 0)
(1.11265538 0.002883650438 0)
(1.131045495 -0.005513046836 0)
(1.11534566 0.004467204331 0)
(1.135800886 -0.00269027897 0)
(1.115348844 0.005927392642 0)
(1.137351193 -3.183500819e-06 0)
(1.113174653 0.006946564674 0)
(1.136816774 0.002174190525 0)
(1.109243584 0.007833144123 0)
(1.134015403 0.003931069292 0)
(1.103766994 0.008554012877 0)
(1.129595547 0.005476590755 0)
(1.097202208 0.009041447779 0)
(1.123770577 0.006564786265 0)
(1.089861185 0.009312193345 0)
(1.117052339 0.007341022951 0)
(1.082110162 0.009353490002 0)
(1.109675342 0.007751023091 0)
(1.074262162 0.009201026156 0)
(1.102053729 0.007848000711 0)
(1.066584884 0.008912528261 0)
(1.094405807 0.007677277599 0)
(1.059264472 0.008554872246 0)
(1.086981558 0.007320412399 0)
(1.052425493 0.00818065579 0)
(1.079913688 0.006838979497 0)
(1.046141324 0.00782146869 0)
(1.073316225 0.006284168743 0)
(1.040442824 0.0074928139 0)
(1.067239533 0.005698500238 0)
(1.035334475 0.007202005066 0)
(1.061718046 0.005108349474 0)
(1.030795804 0.006950872347 0)
(1.056745445 0.004538670578 0)
(1.026794465 0.006738893016 0)
(1.052312371 0.004001339616 0)
(1.023282622 0.006563457322 0)
(1.048375503 0.003511842774 0)
(1.020212179 0.006421774291 0)
(1.044907767 0.003070442509 0)
(1.01752531 0.006309825884 0)
(1.04184411 0.00268686911 0)
(1.015174167 0.00622463394 0)
(1.039158459 0.002351143848 0)
(1.013101064 0.006162140972 0)
(1.036774559 0.002073102467 0)
(1.011267013 0.006120088004 0)
(1.034678205 0.001834051027 0)
(1.009617503 0.006094667909 0)
(1.032786872 0.001649510139 0)
(1.008125737 0.006084499245 0)
(1.031102286 0.001491765759 0)
(1.006738976 0.006086031886 0)
(1.029538329 0.001386760914 0)
(1.00544374 0.00609893178 0)
(1.028111016 0.001295235616 0)
(1.004185988 0.006119880253 0)
(1.026734639 0.001257752065 0)
(1.002966236 0.006149299241 0)
(1.025431985 0.001219751588 0)
(1.001726704 0.00618412283 0)
(1.024126332 0.001239532121 0)
(1.000481767 0.006224911081 0)
(1.022835201 0.001244937312 0)
(0.9991702161 0.006268967066 0)
(1.021503 0.001311550219 0)
(0.9978185499 0.00631621275 0)
(1.020129858 0.001351665996 0)
(0.9963660992 0.006364634501 0)
(1.01869241 0.00145245048 0)
(0.9948481635 0.006412789948 0)
(1.017166847 0.001517935453 0)
(0.9932116452 0.006459483187 0)
(1.015566753 0.001636518003 0)
(0.9914967446 0.006501661935 0)
(1.013847871 0.001714900372 0)
(0.9896657686 0.006539004146 0)
(1.012056394 0.001830975783 0)
(0.9877606206 0.006567492902 0)
(1.010140878 0.001905147716 0)
(0.9857638431 0.006587604911 0)
(1.008167524 0.001996777262 0)
(0.9837169997 0.00659572588 0)
(1.006094228 0.002046843103 0)
(0.9816217791 0.006593305049 0)
(1.003992017 0.002095220392 0)
(0.9795171188 0.006578411598 0)
(1.00183782 0.002104660048 0)
(0.9774174849 0.006553507796 0)
(0.9996950136 0.002099633579 0)
(0.9753558357 0.006518645276 0)
(0.9975587856 0.00206164894 0)
(0.9733507813 0.006476704876 0)
(0.9954771232 0.002005054124 0)
(0.9714267162 0.006429052765 0)
(0.993456228 0.001924064879 0)
(0.9695993206 0.006378302654 0)
(0.9915271501 0.001827395343 0)
(0.9678835574 0.006326150068 0)
(0.9896986656 0.001715762973 0)
(0.9662885964 0.006274533448 0)
(0.9879874953 0.001594960737 0)
(0.9648206589 0.00622475147 0)
(0.9863993114 0.001467937283 0)
(0.9634818937 0.006178000801 0)
(0.9849402043 0.001338765011 0)
(0.9622715936 0.006134966181 0)
(0.983610697 0.001210299844 0)
(0.9611862734 0.006096128481 0)
(0.9824095868 0.001085320084 0)
(0.9602205042 0.006061703054 0)
(0.9813327601 0.0009657689966 0)
(0.9593673344 0.00603164625 0)
(0.980374491 0.0008531696374 0)
(0.9586187629 0.006005780932 0)
(0.9795276331 0.0007485713004 0)
(0.9579662197 0.005983832571 0)
(0.9787841484 0.0006525430914 0)
(0.957400949 0.005965465081 0)
(0.97813554 0.0005652706917 0)
(0.9569142468 0.005950229409 0)
(0.9775730998 0.000486702076 0)
(0.95649766 0.00593776342 0)
(0.9770882633 0.0004165868179 0)
(0.9561431767 0.005927621216 0)
(0.9766727126 0.0003544832563 0)
(0.9558433232 0.005919565972 0)
(0.9763186211 0.0002998534763 0)
(0.9555913013 0.00591314537 0)
(0.9760186088 0.0002520219559 0)
(0.9553807753 0.005908212644 0)
(0.9757660656 0.0002105260889 0)
(0.9552063697 0.005904354459 0)
(0.9755545597 0.0001744057278 0)
(0.9550626109 0.005901464274 0)
(0.9753792114 0.0001437588928 0)
(0.9549458404 0.005899292976 0)
(0.9752338208 0.0001167705937 0)
(0.954850969 0.005897741672 0)
(0.9751162279 9.487162876e-05 0)
(0.9547760719 0.00589656619 0)
(0.9750191 7.489730736e-05 0)
(0.95471672 0.005895914701 0)
(0.9749437746 5.93521694e-05 0)
(0.9546711733 0.005895442773 0)
(0.9748819614 4.5546975e-05 0)
(0.9546375802 0.005894890303 0)
(0.9748355999 3.359350208e-05 0)
(0.9546123995 0.00589503407 0)
(0.9748008704 2.518107609e-05 0)
(0.954596298 0.005894851082 0)
(0.9747726401 1.610186606e-05 0)
(0.9545858019 0.00589335354 0)
(0.9747580668 1.049656614e-05 0)
(0.9545814981 0.005891391704 0)
(0.9747424402 4.304286697e-06 0)
(0.9545837627 0.00588944836 0)
(0.9747389255 -2.264128176e-06 0)
(0.9545880438 0.00588640645 0)
(0.9747365498 -4.280578302e-06 0)
(0.9545916622 0.005882744059 0)
(0.9747374473 -3.617762674e-06 0)
(0.9545964213 0.005877970114 0)
(0.9747411086 -4.758529974e-06 0)
(0.9546049466 0.005872477168 0)
(0.9747479162 -8.524664253e-06 0)
(0.9546139065 0.005867774589 0)
(0.9747543377 -8.959230441e-06 0)
(0.9546231046 0.005861634412 0)
(0.974763099 -9.197293652e-06 0)
(0.9546347759 0.005852552791 0)
(0.9747749958 -1.167057904e-05 0)
(0.954647 0.005839368874 0)
(0.9747877266 -1.222326792e-05 0)
(0.954659694 0.005822272478 0)
(0.9747960264 -1.269316457e-05 0)
(0.9546774598 0.005808648096 0)
(0.9748060004 -1.77648878e-05 0)
(0.9547000988 0.005801543855 0)
(0.9748200531 -2.263811179e-05 0)
(0.9547241293 0.005799826219 0)
(0.9748362811 -2.402947741e-05 0)
(0.9547446093 0.005802903206 0)
(0.9748530124 -2.047905826e-05 0)
(0.9547580353 0.005805803024 0)
(0.9748690707 -1.342486059e-05 0)
(0.9547677286 0.005807735855 0)
(0.9748801048 -9.692227304e-06 0)
(0.9547774794 0.00581030698 0)
(0.9748903519 -9.749668125e-06 0)
(0.9547871454 0.005810667772 0)
(0.9748997805 -9.664852941e-06 0)
(0.9547965821 0.005806871354 0)
(0.9749096082 -9.435484474e-06 0)
(0.9548062463 0.00580379602 0)
(0.9749181814 -9.662965703e-06 0)
(0.9548143606 0.005804516357 0)
(0.9749257359 -8.112926237e-06 0)
(0.9548205202 0.005805604966 0)
(0.9749318898 -6.158356879e-06 0)
(0.9548258678 0.005805634933 0)
(0.9749376649 -5.346231473e-06 0)
(0.9548305263 0.005804362907 0)
(0.9749434982 -4.657029468e-06 0)
(0.9548335774 0.005801969451 0)
(0.974946893 -3.049737684e-06 0)
(0.9548343602 0.005798398987 0)
(0.9749516362 -7.813676889e-07 0)
(0.9548331994 0.005792103083 0)
(0.9749549773 1.16231932e-06 0)
(0.954832805 0.005785068438 0)
(0.9749580209 3.958669e-07 0)
(0.9548337883 0.005780106522 0)
(0.9749609355 -9.817439973e-07 0)
(0.9548342524 0.005774117014 0)
(0.9749628957 -4.624886182e-07 0)
(0.9548370629 0.00576377209 0)
(0.9749650483 -2.808961769e-06 0)
(0.9548445905 0.005755486907 0)
(0.9749683834 -7.52595801e-06 0)
(0.9548519399 0.005753484123 0)
(0.9749735487 -7.347731083e-06 0)
(0.9548562391 0.005752662916 0)
(0.9749770677 -4.297524962e-06 0)
(0.9548612503 0.005752804484 0)
(0.9749824926 -5.009476694e-06 0)
(0.9548681189 0.00575470252 0)
(0.9749858443 -6.866869044e-06 0)
(0.9548746856 0.005756581413 0)
(0.9749915489 -6.564963888e-06 0)
(0.9548812515 0.005757037427 0)
(0.9749969311 -6.564121552e-06 0)
(0.9548879051 0.005756370059 0)
(0.9750020928 -6.651818353e-06 0)
(0.9548928146 0.005755836068 0)
(0.9750080596 -4.907637214e-06 0)
(0.9548959591 0.005756554821 0)
(0.9750130946 -3.142733648e-06 0)
(0.954898142 0.005759905139 0)
(0.9750183018 -2.181035328e-06 0)
(0.9548972995 0.005764484346 0)
(0.9750211079 8.443721225e-07 0)
(0.9548915644 0.005766304175 0)
(0.975021654 5.73700167e-06 0)
(0.9548843021 0.005760839492 0)
(0.9750207108 7.264077512e-06 0)
(0.9548828293 0.005750977957 0)
(0.975019786 1.474692366e-06 0)
(0.9548885639 0.005745517563 0)
(0.975020372 -5.732639543e-06 0)
(0.9548955105 0.005748390124 0)
(0.9750204117 -6.944813425e-06 0)
(0.9548969612 0.005754271719 0)
(0.9750216521 -1.448818353e-06 0)
(0.9548965662 0.005757676456 0)
(0.9750225305 3.969584739e-07 0)
(0.9548996583 0.00576090564 0)
(0.9750239176 -3.090249925e-06 0)
(0.9549032162 0.00576487126 0)
(0.975024625 -3.555945385e-06 0)
(0.9549050323 0.005766813833 0)
(0.9750216835 -1.81412798e-06 0)
(0.9548990057 0.005768129077 0)
(0.9750167327 6.028486492e-06 0)
(0.9548883535 0.005769368543 0)
(0.9750132628 1.065405677e-05 0)
(0.9548830152 0.005768692448 0)
(0.9750082204 5.34007811e-06 0)
(0.9548853317 0.005770528168 0)
(0.9750049837 -2.314619142e-06 0)
(0.9548841181 0.00577710062 0)
(0.9750028588 1.215352556e-06 0)
(0.9548763403 0.00578356127 0)
(0.9750008955 7.779686063e-06 0)
(0.9548696777 0.005786736851 0)
(0.974997099 6.664468159e-06 0)
(0.9548681353 0.005789688476 0)
(0.974995249 1.544299799e-06 0)
(0.9548696909 0.005792902352 0)
(0.9749923223 -1.553721947e-06 0)
(0.9548716493 0.005795838727 0)
(0.9749898944 -1.956516535e-06 0)
(0.9548720766 0.005802248989 0)
(0.9749857779 -4.253856476e-07 0)
(0.9548632031 0.005817771986 0)
(0.9749829027 8.875304502e-06 0)
(0.9548402155 0.00583027078 0)
(0.9749777082 2.298946375e-05 0)
(0.9548191099 0.005828283617 0)
(0.9749652037 2.110744739e-05 0)
(0.9548133761 0.005825568829 0)
(0.9749580397 5.735621277e-06 0)
(0.9548186337 0.005832221474 0)
(0.9749527289 -5.255959478e-06 0)
(0.9548172125 0.005847091245 0)
(0.9749478354 1.423016538e-06 0)
(0.9548047326 0.00586240359 0)
(0.9749369783 1.248167447e-05 0)
(0.9547873227 0.00587363523 0)
(0.9749242588 1.741172633e-05 0)
(0.9547688792 0.005881586186 0)
(0.9749105352 1.844529474e-05 0)
(0.9547509714 0.005886784732 0)
(0.9748966881 1.790962472e-05 0)
(0.9547340616 0.005890122533 0)
(0.9748829056 1.691149034e-05 0)
(0.9547179077 0.005892531756 0)
(0.9748690336 1.615562783e-05 0)
(0.9547018368 0.005894801022 0)
(0.9748545553 1.607265736e-05 0)
(0.9546852835 0.005897344218 0)
(0.974839006 1.655505511e-05 0)
(0.9546679645 0.005900185541 0)
(0.9748222266 1.732067229e-05 0)
(0.9546497145 0.005903123847 0)
(0.9748042397 1.825165877e-05 0)
(0.9546303451 0.005905934774 0)
(0.9747850341 1.9371004e-05 0)
(0.9546096409 0.005908480931 0)
(0.9747645126 2.07057964e-05 0)
(0.9545873963 0.005910719596 0)
(0.9747425323 2.224619306e-05 0)
(0.9545634268 0.005912669685 0)
(0.974718933 2.397108266e-05 0)
(0.9545375605 0.005914376515 0)
(0.9746935542 2.586781081e-05 0)
(0.9545096268 0.005915891465 0)
(0.9746662278 2.793520912e-05 0)
(0.9544794501 0.005917262979 0)
(0.9746367792 3.017814545e-05 0)
(0.954446847 0.005918534705 0)
(0.9746050236 3.260457337e-05 0)
(0.954411624 0.005919744835 0)
(0.9745707665 3.522443236e-05 0)
(0.954373575 0.005920926826 0)
(0.9745338014 3.805040047e-05 0)
(0.9543324788 0.005922109058 0)
(0.9744939074 4.109756253e-05 0)
(0.9542880966 0.005923315931 0)
(0.9744508481 4.43835312e-05 0)
(0.9542401703 0.005924568196 0)
(0.9744043686 4.792760197e-05 0)
(0.9541884207 0.005925883623 0)
(0.974354195 5.175088239e-05 0)
(0.9541325458 0.005927278166 0)
(0.9743000318 5.587617523e-05 0)
(0.9540722192 0.005928765567 0)
(0.9742415603 6.032784181e-05 0)
(0.9540070879 0.005930359242 0)
(0.974178437 6.513247242e-05 0)
(0.9539367708 0.005932071403 0)
(0.9741102914 7.031829974e-05 0)
(0.9538608555 0.005933914311 0)
(0.9740367225 7.591650458e-05 0)
(0.9537788978 0.005935900755 0)
(0.9739572998 8.195874154e-05 0)
(0.9536904151 0.005938041857 0)
(0.9738715554 8.848387281e-05 0)
(0.9535948918 0.005940355162 0)
(0.9737789878 9.552429545e-05 0)
(0.9534917615 0.005942846139 0)
(0.9736790513 0.000103131359 0)
(0.9533804257 0.005945544847 0)
(0.9735711613 0.0001113368232 0)
(0.9532602244 0.005948445597 0)
(0.9734546817 0.0001202022441 0)
(0.9531304507 0.005951591918 0)
(0.9733289304 0.0001297747047 0)
(0.9529903537 0.005954981092 0)
(0.9731931656 0.0001400979276 0)
(0.9528390847 0.005958636744 0)
(0.9730465909 0.0001512698842 0)
(0.9526757797 0.005962606757 0)
(0.9728883432 0.0001633058635 0)
(0.9524994685 0.005966863284 0)
(0.9727174865 0.0001763120094 0)
(0.9523090881 0.005971482375 0)
(0.9725330293 0.0001903812862 0)
(0.9521035568 0.005976477514 0)
(0.9723338477 0.0002055320293 0)
(0.9518816411 0.00598185003 0)
(0.9721188395 0.0002219165248 0)
(0.9516420068 0.005987665155 0)
(0.9718865955 0.0002396349878 0)
(0.9513832611 0.005993965785 0)
(0.9716360029 0.0002587464237 0)
(0.9511038908 0.006000763839 0)
(0.9713650896 0.0002793710129 0)
(0.950802196 0.006008091821 0)
(0.9710731471 0.000301695413 0)
(0.9504763914 0.006016025415 0)
(0.9707568307 0.0003258052142 0)
(0.950124511 0.006024623746 0)
(0.9704170799 0.0003518810778 0)
(0.9497445558 0.006033935492 0)
(0.9700470172 0.000379955767 0)
(0.9493341098 0.006043971853 0)
(0.9696526059 0.000410446589 0)
(0.9488909317 0.006054824677 0)
(0.9692179814 0.0004431786193 0)
(0.9484119264 0.006066506265 0)
(0.9687623825 0.00047900584 0)
(0.9478948619 0.006079210355 0)
(0.9682483939 0.0005170649156 0)
(0.9473355111 0.006092881928 0)
(0.9677267515 0.0005593513525 0)
(0.9467321834 0.006107844835 0)
(0.9671123683 0.0006033280967 0)
(0.9460785025 0.006123880752 0)
(0.9665234198 0.0006536813265 0)
(0.9453744597 0.006141534644 0)
(0.9657786837 0.0007040432562 0)
(0.9446097052 0.00616038713 0)
(0.9651264319 0.0007647548847 0)
(0.9437879906 0.006181214848 0)
(0.9642107772 0.0008217149854 0)
(0.9428920847 0.006203444512 0)
(0.9635035372 0.0008959062787 0)
(0.941932661 0.006228119021 0)
(0.9623683766 0.0009594241024 0)
(0.9408815264 0.006254042502 0)
(0.9616109494 0.001051134937 0)
(0.9397610733 0.006284068146 0)
(0.9602116457 0.001120453334 0)
(0.9385241012 0.006313573085 0)
(0.9593851592 0.001236972393 0)
(0.9372163348 0.006349987321 0)
(0.9577029478 0.001307766683 0)
(0.9357551868 0.00638638242 0)
(0.9567495015 0.001461148245 0)
(0.9342252624 0.006430983802 0)
(0.9547760958 0.001529924693 0)
(0.9324929763 0.006468822437 0)
(0.9536450439 0.001732286259 0)
(0.9307062863 0.006534435695 0)
(0.9513267983 0.001786690228 0)
(0.9286368726 0.006564754699 0)
(0.9499906045 0.002069413896 0)
(0.9265368307 0.006670977113 0)
(0.947240946 0.002100042064 0)
(0.9240670263 0.006687433804 0)
(0.9456706607 0.002469804533 0)
(0.9215528169 0.006837516056 0)
(0.9423881065 0.002514209539 0)
(0.9186036603 0.00688885027 0)
(0.9405097243 0.002949156676 0)
(0.9155666331 0.007036168637 0)
(0.9365968323 0.003037027386 0)
(0.911968133 0.007214457788 0)
(0.9343395037 0.00359850018 0)
(0.9082826381 0.007382492505 0)
(0.9295232933 0.003685494989 0)
(0.9037952226 0.007694709462 0)
(0.9270130484 0.004487415537 0)
(0.8991525957 0.008074208135 0)
(0.9206031263 0.004642626956 0)
(0.8934946857 0.008869811434 0)
(0.9184766042 0.00565791 0)
(0.9085276866 0.006544375436 0)
(0.9837280481 0.05001388644 0)
(1.000497444 0.07280813907 0)
(0.9684114608 0.03054481986 0)
(0.9768704568 0.05708009216 0)
(0.95713478 0.01679685715 0)
(0.970806004 0.03494136114 0)
(0.950653543 0.01280867487 0)
(0.9585753588 0.02624013826 0)
(0.9458755853 0.01055030706 0)
(0.9560717617 0.0223367088 0)
(0.9387705166 0.004501342648 0)
(0.9502812676 0.01894581926 0)
(0.9316557054 -0.007731456429 0)
(0.9443268397 0.008590693263 0)
(0.9306657622 -0.02359276516 0)
(0.9394001431 -0.00924620977 0)
(0.9392950184 -0.03731849703 0)
(0.943312188 -0.03088788936 0)
(0.9552360847 -0.04562893514 0)
(0.954863865 -0.04543931798 0)
(0.9774478774 -0.04864128608 0)
(0.9728282127 -0.05510022929 0)
(1.001856751 -0.0478083491 0)
(0.9955534572 -0.05644559301 0)
(1.02728797 -0.04490502421 0)
(1.019190358 -0.05564092813 0)
(1.05135122 -0.04095356698 0)
(1.043786321 -0.05083240534 0)
(1.073967949 -0.03671260686 0)
(1.06629783 -0.04657088864 0)
(1.094013984 -0.03234364189 0)
(1.087877281 -0.0403899541 0)
(1.111769165 -0.02800554545 0)
(1.106411038 -0.03537942305 0)
(1.126574069 -0.02365883493 0)
(1.123094048 -0.02899826841 0)
(1.138714596 -0.01934780212 0)
(1.136384441 -0.02368093654 0)
(1.147836001 -0.01507645154 0)
(1.147279855 -0.01730921769 0)
(1.154267581 -0.01099407305 0)
(1.15480518 -0.01194462644 0)
(1.15772694 -0.007045639534 0)
(1.159743597 -0.006149636974 0)
(1.158878095 -0.003613882359 0)
(1.161625735 -0.001154338292 0)
(1.157586456 -0.000688452469 0)
(1.16144962 0.003465830096 0)
(1.154369113 0.001730725862 0)
(1.158701313 0.007148413485 0)
(1.149568394 0.003654781093 0)
(1.154422221 0.0102773093 0)
(1.143611247 0.005044968088 0)
(1.148599915 0.01252193405 0)
(1.136841712 0.0059673223 0)
(1.1419185 0.01411055879 0)
(1.129609887 0.006436983493 0)
(1.134566308 0.01498284766 0)
(1.122183614 0.006517050877 0)
(1.126964326 0.01527427432 0)
(1.114795848 0.006277401577 0)
(1.119297232 0.01506504439 0)
(1.107624742 0.005794768364 0)
(1.111810569 0.01449151821 0)
(1.10080121 0.005129090765 0)
(1.104630138 0.01366251234 0)
(1.09441319 0.004343219364 0)
(1.097888987 0.0126721883 0)
(1.088514054 0.003491497425 0)
(1.091648649 0.01159763681 0)
(1.083130543 0.002618366371 0)
(1.085952171 0.01049186008 0)
(1.078262517 0.001758954609 0)
(1.080796843 0.009406696701 0)
(1.073896464 0.0009411407613 0)
(1.076177227 0.008367393388 0)
(1.070001353 0.0001832839445 0)
(1.07205152 0.007406953917 0)
(1.0665437 -0.0005018727819 0)
(1.06839772 0.006528095584 0)
(1.063477417 -0.001110619231 0)
(1.065151223 0.005753151196 0)
(1.060763637 -0.001640185745 0)
(1.062292676 0.005064924329 0)
(1.058350828 -0.002095454504 0)
(1.059744122 0.004485911639 0)
(1.056203683 -0.002477397804 0)
(1.057498993 0.003981195931 0)
(1.054269438 -0.002794479659 0)
(1.055469894 0.003583755133 0)
(1.052521491 -0.003047109081 0)
(1.05366686 0.003239712226 0)
(1.050906577 -0.00324511879 0)
(1.051995183 0.003001675053 0)
(1.049409721 -0.003386839751 0)
(1.050480425 0.002792090935 0)
(1.047975104 -0.003483012933 0)
(1.049025037 0.002692368886 0)
(1.04660119 -0.003530250533 0)
(1.047662489 0.002593664709 0)
(1.045227524 -0.003539412546 0)
(1.046302838 0.002613197779 0)
(1.043866696 -0.003507555305 0)
(1.044972987 0.00260576526 0)
(1.042453806 -0.003444149209 0)
(1.043606553 0.002724439982 0)
(1.041014556 -0.00334962385 0)
(1.042207914 0.002790915451 0)
(1.039483399 -0.003230800176 0)
(1.040749171 0.002983606792 0)
(1.037895868 -0.003093818556 0)
(1.039202676 0.003105466265 0)
(1.036193134 -0.002942405455 0)
(1.0375859 0.003339251941 0)
(1.034416447 -0.002788988238 0)
(1.035842142 0.003491586872 0)
(1.032522411 -0.0026349603 0)
(1.034029207 0.003725011329 0)
(1.030554397 -0.002496674177 0)
(1.032077911 0.0038731609 0)
(1.028490233 -0.002374273016 0)
(1.030070265 0.004060941225 0)
(1.026373339 -0.002283418221 0)
(1.027946675 0.004163736676 0)
(1.024202212 -0.002222937443 0)
(1.025793978 0.004266346481 0)
(1.022017697 -0.00220375597 0)
(1.023575624 0.004289174785 0)
(1.019832418 -0.002222324498 0)
(1.021368322 0.004284911863 0)
(1.017680698 -0.002282837768 0)
(1.019158683 0.004213368869 0)
(1.015580361 -0.00237953663 0)
(1.017003846 0.00410539096 0)
(1.013556711 -0.002510807093 0)
(1.014905684 0.003947713795 0)
(1.011625494 -0.002669746026 0)
(1.012900331 0.003758612273 0)
(1.009802609 -0.002851482553 0)
(1.010995026 0.003538647079 0)
(1.008097966 -0.003049152121 0)
(1.009209028 0.003299604069 0)
(1.006519036 -0.003256996164 0)
(1.007547768 0.003046866674 0)
(1.005069195 -0.003469253795 0)
(1.006018663 0.002788605681 0)
(1.003749051 -0.003680963225 0)
(1.004622372 0.002530443327 0)
(1.002556481 -0.003887877347 0)
(1.003358374 0.002277890073 0)
(1.001487217 -0.004086747047 0)
(1.002222822 0.002035031934 0)
(1.000535283 -0.004274959776 0)
(1.001210197 0.00180510373 0)
(0.9996935211 -0.004450725468 0)
(1.000313453 0.001590333137 0)
(0.9989539687 -0.004613017938 0)
(0.9995246276 0.001392095282 0)
(0.9983081684 -0.004761371777 0)
(0.9988350835 0.001211070902 0)
(0.9977475795 -0.004895640186 0)
(0.9982359689 0.001047290949 0)
(0.9972637363 -0.005016155604 0)
(0.9977184101 0.0009004299813 0)
(0.9968485652 -0.005123448946 0)
(0.9972740097 0.0007696543438 0)
(0.9964942565 -0.005218499599 0)
(0.9968944 0.0006541622673 0)
(0.9961937222 -0.00530199082 0)
(0.9965723001 0.0005525563367 0)
(0.9959401295 -0.005375202232 0)
(0.9963000643 0.0004641189831 0)
(0.995727693 -0.005438582353 0)
(0.9960721321 0.0003868424617 0)
(0.995550641 -0.005493744158 0)
(0.9958813732 0.0003208112258 0)
(0.995404443 -0.005540827508 0)
(0.9957245772 0.0002629689055 0)
(0.9952845357 -0.005581464166 0)
(0.9955941734 0.0002147793511 0)
(0.9951869826 -0.005616084325 0)
(0.9954904649 0.0001724508595 0)
(0.9951091572 -0.005645005273 0)
(0.9954035194 0.0001371780856 0)
(0.9950465384 -0.005670482333 0)
(0.9953390696 0.0001081663681 0)
(0.9949989593 -0.005690437881 0)
(0.9952828686 8.117334218e-05 0)
(0.9949613223 -0.00570814065 0)
(0.9952462797 6.281874029e-05 0)
(0.9949343727 -0.005722693705 0)
(0.9952127791 4.305233675e-05 0)
(0.9949148455 -0.005732836255 0)
(0.9951941815 3.002462116e-05 0)
(0.9949001887 -0.005744171317 0)
(0.9951782266 1.89619566e-05 0)
(0.9948915405 -0.00575159098 0)
(0.9951703598 6.385051511e-06 0)
(0.9948856385 -0.005752355996 0)
(0.9951653253 1.6225252e-06 0)
(0.9948873395 -0.005752414754 0)
(0.995166235 -5.317708021e-06 0)
(0.9948927835 -0.005751246238 0)
(0.9951716575 -1.020136437e-05 0)
(0.9948972016 -0.005747143041 0)
(0.9951777412 -1.294153211e-05 0)
(0.994903366 -0.005741910378 0)
(0.9951854413 -1.512230152e-05 0)
(0.9949152582 -0.005738690481 0)
(0.995196356 -2.108806956e-05 0)
(0.9949278367 -0.005733954147 0)
(0.9952030573 -2.424769076e-05 0)
(0.9949368809 -0.005722671982 0)
(0.9952094977 -2.126588532e-05 0)
(0.994942383 -0.005712213857 0)
(0.9952188855 -1.819375191e-05 0)
(0.9949484982 -0.005709293578 0)
(0.9952307634 -2.387841684e-05 0)
(0.9949564333 -0.005708176478 0)
(0.9952428045 -3.05714706e-05 0)
(0.9949649566 -0.005704205757 0)
(0.9952550113 -3.255092474e-05 0)
(0.9949775301 -0.005697142894 0)
(0.9952695465 -3.30506753e-05 0)
(0.9949911892 -0.005689988529 0)
(0.9952854618 -2.708198439e-05 0)
(0.9950027781 -0.005688771768 0)
(0.9952992341 -2.127904929e-05 0)
(0.9950125674 -0.005691580008 0)
(0.9953080779 -1.953690849e-05 0)
(0.9950223493 -0.005692170321 0)
(0.9953127979 -1.944450636e-05 0)
(0.9950311923 -0.005689097981 0)
(0.9953166687 -1.827628605e-05 0)
(0.9950376416 -0.005685266512 0)
(0.9953208514 -1.610986868e-05 0)
(0.9950433713 -0.005682833077 0)
(0.9953248095 -1.384030268e-05 0)
(0.9950490702 -0.005681008122 0)
(0.9953302358 -1.185481119e-05 0)
(0.9950551449 -0.005678587407 0)
(0.9953351069 -1.141849454e-05 0)
(0.9950599768 -0.005674011135 0)
(0.9953408321 -9.486354104e-06 0)
(0.9950648876 -0.005667137836 0)
(0.9953454648 -7.957932679e-06 0)
(0.9950722125 -0.005658809221 0)
(0.9953507146 -8.103538438e-06 0)
(0.9950798828 -0.00565118874 0)
(0.9953556248 -6.505298363e-06 0)
(0.995086104 -0.005646449786 0)
(0.9953637869 -5.822561791e-06 0)
(0.995090216 -0.005642570329 0)
(0.9953718776 -5.090963119e-06 0)
(0.9950934886 -0.005638475348 0)
(0.995377726 -3.732177088e-06 0)
(0.9950964111 -0.005635090188 0)
(0.9953839587 -5.728584682e-06 0)
(0.9950972619 -0.00563207219 0)
(0.9953879866 -8.373796342e-06 0)
(0.9950987425 -0.005628768453 0)
(0.9953914469 -8.825331548e-06 0)
(0.995103563 -0.005626909711 0)
(0.9953962864 -9.11496461e-06 0)
(0.9951066491 -0.005627903609 0)
(0.9954018424 -8.092534269e-06 0)
(0.9951094585 -0.005629392176 0)
(0.9954041472 -9.67313517e-06 0)
(0.9951140019 -0.005631645139 0)
(0.9954043007 -1.110517662e-05 0)
(0.9951176989 -0.005632598562 0)
(0.9954033615 -1.025798192e-05 0)
(0.9951220496 -0.005629426848 0)
(0.9954038544 -1.099926527e-05 0)
(0.9951284524 -0.005625464022 0)
(0.995405425 -1.130718313e-05 0)
(0.9951356804 -0.005624402835 0)
(0.9954071034 -1.036736761e-05 0)
(0.9951408494 -0.005623828309 0)
(0.9954102762 -7.346787664e-06 0)
(0.9951455448 -0.005620363974 0)
(0.9954133304 -3.847667073e-06 0)
(0.9951512796 -0.005616842127 0)
(0.9954177258 5.524202035e-09 0)
(0.9951558611 -0.005616673011 0)
(0.9954234691 2.686057387e-06 0)
(0.9951570234 -0.0056203867 0)
(0.9954259043 3.157793385e-07 0)
(0.9951527475 -0.00562460155 0)
(0.9954225169 -1.453410414e-06 0)
(0.9951463183 -0.005625275536 0)
(0.9954156185 -5.122890311e-07 0)
(0.9951470461 -0.005624581621 0)
(0.9954135823 -2.173253324e-06 0)
(0.995150105 -0.005626876339 0)
(0.9954121804 -2.658645441e-06 0)
(0.9951486399 -0.005630805309 0)
(0.9954105248 -1.621725291e-06 0)
(0.9951430623 -0.005631654685 0)
(0.9954077531 2.025089369e-06 0)
(0.9951342934 -0.005626095126 0)
(0.99540478 6.95819189e-06 0)
(0.9951301946 -0.005620724762 0)
(0.9954001279 1.013058144e-05 0)
(0.9951328252 -0.005623670485 0)
(0.9954011168 8.026764557e-06 0)
(0.9951307684 -0.005632452732 0)
(0.9953994913 7.400106327e-06 0)
(0.9951223525 -0.005638174779 0)
(0.9953933641 6.104539514e-06 0)
(0.9951193827 -0.005637555263 0)
(0.9953856999 4.188505157e-06 0)
(0.9951218481 -0.005637650116 0)
(0.9953828646 5.317627627e-06 0)
(0.995122739 -0.005642253702 0)
(0.995381448 5.776931616e-06 0)
(0.9951194516 -0.005649361262 0)
(0.9953785148 4.834981823e-06 0)
(0.9951122815 -0.005654807559 0)
(0.9953745419 5.619845628e-06 0)
(0.9951042687 -0.005657992892 0)
(0.9953663508 6.059619502e-06 0)
(0.9950970332 -0.005657988693 0)
(0.9953572838 6.81350885e-06 0)
(0.9950964349 -0.005654820086 0)
(0.9953536397 9.476919586e-06 0)
(0.9951031561 -0.005655564312 0)
(0.9953512163 1.62715157e-05 0)
(0.9951047235 -0.0056680358 0)
(0.9953542135 1.954320699e-05 0)
(0.9950965611 -0.005688308678 0)
(0.9953518934 1.390113962e-05 0)
(0.9950820361 -0.005697263016 0)
(0.9953382664 9.272271248e-06 0)
(0.9950676858 -0.005693080435 0)
(0.995324545 1.577650421e-05 0)
(0.9950566564 -0.005691149336 0)
(0.9953151652 2.351433623e-05 0)
(0.9950474176 -0.005695713401 0)
(0.99530906 2.665380675e-05 0)
(0.9950383519 -0.005702707383 0)
(0.995302405 2.75141885e-05 0)
(0.9950286189 -0.005709034578 0)
(0.9952945548 2.764571334e-05 0)
(0.9950178709 -0.005713748712 0)
(0.9952854105 2.766259371e-05 0)
(0.9950056785 -0.005716636651 0)
(0.9952748198 2.835111038e-05 0)
(0.9949917233 -0.005718172375 0)
(0.9952628175 3.003093005e-05 0)
(0.9949759478 -0.005719168794 0)
(0.9952495492 3.233354965e-05 0)
(0.9949585018 -0.005720058567 0)
(0.9952349647 3.476965311e-05 0)
(0.9949395591 -0.005720738084 0)
(0.9952189232 3.719721845e-05 0)
(0.9949192017 -0.005720930694 0)
(0.9952013095 3.973130949e-05 0)
(0.9948974043 -0.005720475989 0)
(0.9951820465 4.250604004e-05 0)
(0.9948740693 -0.005719354959 0)
(0.9951610628 4.558396762e-05 0)
(0.9948490608 -0.005717612877 0)
(0.9951382601 4.898230235e-05 0)
(0.9948222218 -0.005715302097 0)
(0.9951135232 5.27095079e-05 0)
(0.9947933805 -0.005712464544 0)
(0.9950867204 5.677915857e-05 0)
(0.9947623529 -0.005709131206 0)
(0.9950577097 6.120830885e-05 0)
(0.9947289434 -0.005705324294 0)
(0.9950263328 6.601669831e-05 0)
(0.9946929441 -0.005701056771 0)
(0.9949924165 7.122614346e-05 0)
(0.994654134 -0.00569633248 0)
(0.99495577 7.68629682e-05 0)
(0.9946122769 -0.005691145827 0)
(0.9949161844 8.29570729e-05 0)
(0.9945671203 -0.00568548344 0)
(0.994873432 8.95424509e-05 0)
(0.9945183935 -0.005679325093 0)
(0.9948272643 9.665673969e-05 0)
(0.9944658063 -0.005672644234 0)
(0.9947774131 0.0001043403325 0)
(0.9944090465 -0.005665409361 0)
(0.9947235869 0.000112638168 0)
(0.9943477783 -0.005657582986 0)
(0.9946654719 0.0001215981313 0)
(0.9942816406 -0.005649123473 0)
(0.9946027271 0.0001312722597 0)
(0.9942102434 -0.005639983316 0)
(0.994534987 0.0001417176162 0)
(0.9941331671 -0.005630111675 0)
(0.9944618515 0.0001529947699 0)
(0.9940499576 -0.005619450425 0)
(0.9943828976 0.0001651701637 0)
(0.9939601285 -0.005607939086 0)
(0.9942976521 0.0001783149008 0)
(0.9938631475 -0.005595510964 0)
(0.994205632 0.0001925071165 0)
(0.9937584514 -0.005582087964 0)
(0.9941062695 0.0002078292449 0)
(0.9936454174 -0.005567606249 0)
(0.9939990231 0.0002243725743 0)
(0.9935233881 -0.005551950928 0)
(0.9938832054 0.0002422333071 0)
(0.9933916454 -0.005535074006 0)
(0.9937582031 0.0002615190893 0)
(0.9932494034 -0.005516830494 0)